
Running Job 1 of 1 trans_vert_solv.in
qchem trans_vert_solv.in_2167584.0 /scratch1/hulinfen/qchem2167584/ 1
/apps/generic/qchem/6.3.0/openmp/exe/qcprog.exe_s trans_vert_solv.in_2167584.0 /scratch1/hulinfen/qchem2167584/
                  Welcome to Q-Chem
     A Quantum Leap Into The Future Of Chemistry


 Q-Chem 6.3, Q-Chem, Inc., Pleasanton, CA (2025)

 License issued to: University of Southern California (site)

 E. Epifanovsky,  A. T. B. Gilbert,  Xintian Feng,  Joonho Lee,  Yuezhi Mao,  
 N. Mardirossian,  P. Pokhilko,  A. White,  M. Wormit,  M. P. Coons,  
 A. L. Dempwolff,  Zhengting Gan,  D. Hait,  P. R. Horn,  L. D. Jacobson,  
 I. Kaliman,  J. Kussmann,  A. W. Lange,  Ka Un Lao,  D. S. Levine,  Jie Liu,  
 S. C. McKenzie,  A. F. Morrison,  K. D. Nanda,  F. Plasser,  D. R. Rehn,  
 M. L. Vidal,  Zhi-Qiang You,  Ying Zhu,  Huseyin Aksu,  B. Alam,  
 B. Albrecht,  A. Aldossary,  E. Alguire,  J. H. Andersen,  
 J. E. Arias-Martinez,  V. Athavale,  F. Ballesteros,  D. Barton,  K. Begam,  
 A. Behn,  N. Bellonzi,  Y. A. Bernard,  E. J. Berquist,  H. Burton,  
 S. Camps,  A. Carreras,  K. Carter-Fenk,  Mathew Chow,  Romit Chakraborty,  
 Chandrima Chakravarty,  Junhan Chen,  A. D. Chien,  K. D. Closser,  
 V. Cofer-Shabica,  L. Cunha,  S. Dasgupta,  Jia Deng,  Joseph Dickinson,  
 M. de Wergifosse,  M. Diedenhofen,  L. B. Dittmer,  Hainam Do,  Wenjie Dou,  
 S. Ehlert,  Po-Tung Fang,  S. Fatehi,  Qingguo Feng,  Jonathan Fetherolf,  
 T. Friedhoff,  Thomas Froitzheim,  Sarai Folkestad,  B. Ganoe,  J. Gayvert,  
 Qinghui Ge,  G. Gidofalvi,  M. Gimferrer,  G. Giudetti,  M. Goldey,  
 Montgomery Gray,  J. Gomes,  C. Gonzalez-Espinoza,  S. Gulania,  A. Gunina,  
 J. A. Gyamfi,  M. W. D. Hanson-Heine,  P. H. P. Harbach,  A. W. Hauser,  
 M. F. Herbst,  M. Hernandez Vera,  M. Hodecker,  Z. C. Holden,  S. Houck,  
 Xunkun Huang,  Kerwin Hui,  B. C. Huynh,  K. Ikeda,  M. Ivanov,  
 Nayanthara K. Jayadev,  Hyunjun Ji,  Zuxin Jin,  Hanjie Jiang,  
 Subrata Jana,  B. Kaduk,  S. Kaehler,  R. Kang,  Richard Kang,  
 K. Khistyaev,  Jaehoon Kim,  Yongbin Kim,  P. Klunzinger,  Z. Koczor-Benda,  
 Joong Hoon Koh,  D. Kosenkov,  Saikiran Kotaru,  L. Koulias,  T. Kowalczyk,  
 C. M. Krauter,  K. Kue,  A. Kunitsa,  T. Kus,  A. Landau,  C. W. Lander,  
 K. V. Lawler,  D. Lefrancois,  S. Lehtola,  Rain Li,  Shaozhi Li,  
 Tao E. Li,  Yi-Pei Li,  Jiashu Liang,  M. Liebenthal,  Hung-Hsuan Lin,  
 You-Sheng Lin,  Fenglai Liu,  Kuan-Yu Liu,  Xiao Liu,  M. Loipersberger,  
 A. Luenser,  C. Malbon,  Aniket Mandal,  Manisha,  A. Manjanath,  
 P. Manohar,  E. Mansoor,  S. F. Manzer,  Shan-Ping Mao,  A. V. Marenich,  
 T. Markovich,  S. Mason,  F. Matz,  S. A. Maurer,  Samuel May,  
 Alexandra McIsaac,  P. F. McLaughlin,  M. F. S. J. Menger,  J.-M. Mewes,  
 S. A. Mewes,  R. E. Moorby,  P. Morgante,  Mohammad Mostafanejad,  
 Madhubani Mukherjee,  J. W. Mullinax,  Quyen Nguyen,  Avik Kumar Ojha,  
 K. J. Oosterbaan,  Eno Paenurk,  Xiaoliang Pan,  G. Paran,  V. Parravicini,  
 R. L. Patterson,  Alexander C. Paul,  Suranjan K. Paul,  F. Pavosevic,  
 Zheng Pei,  P. Pokhilko,  S. Prager,  E. I. Proynov,  E. Ramos,  B. Rana,  
 A. E. Rask,  A. Rettig,  R. M. Richard,  F. Rob,  E. Rossomme,  S. Roy,  
 T. Scheele,  M. Scheurer,  M. Schneider,  P. E. Schneider,  Tim K. Schramm,  
 N. Sergueev,  S. M. Sharada,  Hengyuan Shen,  W. Skomorowski,  D. W. Small,  
 C. J. Stein,  Alistair J. Sterling,  Yingli Su,  Yu-Chuan Su,  
 E. J. Sundstrom,  J. Talbot,  J. A. Tan,  Zhen Tao,  Hung-Hsuan Teh,  
 J. Thirman,  C. Titeca,  N. Tkachenko,  Hung-Yi Tsai,  T. Tsuchimochi,  
 N. M. Tubman,  C. Utku,  S. P. Veccham,  O. Vydrov,  Z. Wang,  Rahel Weiss,  
 J. Wenzel,  Jonathan Wong,  J. Witte,  H. Wu,  Yanze Wu,  A. Yamada,  
 Chou-Hsun Yang,  Kun Yao,  S. Yeganeh,  S. R. Yost,  Qi Yu,  A. Zech,  
 F. Zeller,  Chongxiao Zhao,  T. Zhao,  Igor Ying Zhang,  Xing Zhang,  
 Yu Zhang,  D. Zuev,  A. Aspuru-Guzik,  A. T. Bell,  N. A. Besley,  
 K. B. Bravaya,  B. R. Brooks,  D. Casanova,  Jeng-Da Chai,  Hsing-Ta Chen,  
 S. Coriani,  C. J. Cramer,  A. E. DePrince, III,  R. A. DiStasio Jr.,  
 A. Dreuw,  B. D. Dunietz,  T. R. Furlani,  W. A. Goddard III,  S. Grimme,  
 S. Hammes-Schiffer,  T. Head-Gordon,  W. J. Hehre,  Chao-Ping Hsu,  
 T.-C. Jagau,  Yousung Jung,  A. Klamt,  Jing Kong,  D. S. Lambrecht,  
 Xiangyuan Li,  WanZhen Liang,  N. J. Mayhall,  C. W. McCurdy,  J. B. Neaton,  
 T. Neudecker,  C. Ochsenfeld,  J. A. Parkhill,  R. Peverati,  
 V. A. Rassolov,  Haisheng Ren,  Yihan Shao,  L. V. Slipchenko,  
 R. P. Steele,  J. E. Subotnik,  A. J. W. Thom,  A. Tkatchenko,  
 D. G. Truhlar,  T. Van Voorhis,  Fan Wang,  T. A. Wesolowski,  K. B. Whaley,  
 H. L. Woodcock III,  P. M. Zimmerman,  S. Faraji,  P. M. W. Gill,  
 M. Head-Gordon,  J. M. Herbert,  A. I. Krylov

 Contributors to earlier versions of Q-Chem not listed above: 
 R. D. Adamson,  B. Austin,  R. Baer,  J. Baker,  G. J. O. Beran,  
 K. Brandhorst,  S. T. Brown,  E. F. C. Byrd,  Arup K. Chakraborty,  
 G. K. L. Chan,  Chun-Min Chang,  Yunqing Chen,  C.-L. Cheng,  
 Siu Hung Chien,  D. M. Chipman,  D. L. Crittenden,  H. Dachsel,  
 R. J. Doerksen,  A. D. Dutoi,  R. G. Edgar,  J. Fosso-Tande,  
 L. Fusti-Molnar,  D. Ghosh,  A. Ghysels,  A. Golubeva-Zadorozhnaya,  
 J. Gonthier,  M. S. Gordon,  S. R. Gwaltney,  G. Hawkins,  J. E. Herr,  
 A. Heyden,  S. Hirata,  E. G. Hohenstein,  G. Kedziora,  F. J. Keil,  
 C. Kelley,  Jihan Kim,  R. A. King,  R. Z. Khaliullin,  P. P. Korambath,  
 W. Kurlancheek,  A. Laurent,  A. M. Lee,  M. S. Lee,  S. V. Levchenko,  
 Ching Yeh Lin,  D. Liotard,  E. Livshits,  R. C. Lochan,  I. Lotan,  
 L. A. Martinez-Martinez,  P. E. Maslen,  N. Nair,  D. P. O'Neill,  
 D. Neuhauser,  E. Neuscamman,  C. M. Oana,  R. Olivares-Amaya,  R. Olson,  
 T. M. Perrine,  B. Peters,  P. A. Pieniazek,  A. Prociuk,  Y. M. Rhee,  
 J. Ritchie,  M. A. Rohrdanz,  E. Rosta,  N. J. Russ,  H. F. Schaefer III,  
 M. W. Schmidt,  N. E. Schultz,  S. Sharma,  N. Shenvi,  C. D. Sherrill,  
 A. C. Simmonett,  A. Sodt,  T. Stein,  D. Stuck,  K. S. Thanthiriwatte,  
 V. Vanovschi,  L. Vogt,  Tao Wang,  A. Warshel,  M. A. Watson,  
 C. F. Williams,  Q. Wu,  X. Xu,  Jun Yang,  W. Zhang,  Yan Zhao

   Please cite Q-Chem as follows:
  "Software for the frontiers of quantum chemistry:
   An overview of developments in the Q-Chem 5 package"
   J. Chem. Phys. 155, 084801 (2021)
   https://doi.org/10.1063/5.0055522 (open access)

 Q-Chem 6.3.0 for Intel X86 EM64T Linux

 Parts of Q-Chem use Armadillo 12.8.2 (Cortisol Injector).
 http://arma.sourceforge.net/

 Q-Chem begins on Tue Dec  9 19:17:58 2025  

 Host: 
0

     Scratch files written to /scratch1/hulinfen/qchem2167584//
 May2125 |scratch|qcdevops|jenkins|workspace|build_RNUM -1
 Processing $rem in /apps/generic/qchem/6.3.0/openmp/config/preferences:
 Processing $rem in /home1/hulinfen/.qchemrc:
 Symmetry turned off for PCM/SM12/SMD calculation

 Checking the input file for inconsistencies... 	...done.

--------------------------------------------------------------
User input:
--------------------------------------------------------------
$molecule
0 1
N    0.3822231    0.4920995    0.0007500
N   -0.3822089   -0.4918314    0.0007486
C    1.7694028    0.1743465    0.0002534
C   -1.7693742   -0.1740353    0.0002525
C    2.6306520    1.2719790    0.0009842
C   -2.2852508    1.1274736   -0.0009287
C    2.2853286   -1.1271433   -0.0009278
C   -2.6306598   -1.2716382    0.0009833
C    4.0094166    1.0771244    0.0006106
C   -3.6614368    1.3148159   -0.0013290
C    3.6615221   -1.3144352   -0.0013283
C   -4.0094172   -1.0767329    0.0006101
C    4.5259449   -0.2161459   -0.0005590
C   -4.5258984    0.2165566   -0.0005595
H    2.2011200    2.2693569    0.0018543
H   -1.6043168    1.9715410   -0.0015210
H    1.6044267   -1.9712356   -0.0015200
H   -2.2011637   -2.2690315    0.0018531
H    4.6768347    1.9337740    0.0012087
H   -4.0679365    2.3222128   -0.0022581
H    4.0680574   -2.3218177   -0.0022572
H   -4.6768656   -1.9333589    0.0012083
H    5.6009389   -0.3728723   -0.0008870
H   -5.6008866    0.3733224   -0.0008873
$end

$rem
JOB_TYPE        = SP
METHOD          = wB97X-D
BASIS           = 6-31+G*
GUI             = 2

CIS_N_ROOTS     = 10
CIS_SINGLETS    = TRUE
CIS_TRIPLETS    = FALSE

SCF_ALGORITHM   = diis
MAX_SCF_CYCLES  = 200
SCF_CONVERGENCE = 8
THRESH          = 12

SOLVENT_METHOD  = PCM
$end

$pcm
Theory CPCM
Method SWIG
Solver Inversion
$end

$solvent
Dielectric 2.0
$end

--------------------------------------------------------------
 ----------------------------------------------------------------
             Standard Nuclear Orientation (Angstroms)
    I     Atom           X                Y                Z
 ----------------------------------------------------------------
    1      N       0.3822231000     0.4920995000     0.0007500000
    2      N      -0.3822089000    -0.4918314000     0.0007486000
    3      C       1.7694028000     0.1743465000     0.0002534000
    4      C      -1.7693742000    -0.1740353000     0.0002525000
    5      C       2.6306520000     1.2719790000     0.0009842000
    6      C      -2.2852508000     1.1274736000    -0.0009287000
    7      C       2.2853286000    -1.1271433000    -0.0009278000
    8      C      -2.6306598000    -1.2716382000     0.0009833000
    9      C       4.0094166000     1.0771244000     0.0006106000
   10      C      -3.6614368000     1.3148159000    -0.0013290000
   11      C       3.6615221000    -1.3144352000    -0.0013283000
   12      C      -4.0094172000    -1.0767329000     0.0006101000
   13      C       4.5259449000    -0.2161459000    -0.0005590000
   14      C      -4.5258984000     0.2165566000    -0.0005595000
   15      H       2.2011200000     2.2693569000     0.0018543000
   16      H      -1.6043168000     1.9715410000    -0.0015210000
   17      H       1.6044267000    -1.9712356000    -0.0015200000
   18      H      -2.2011637000    -2.2690315000     0.0018531000
   19      H       4.6768347000     1.9337740000     0.0012087000
   20      H      -4.0679365000     2.3222128000    -0.0022581000
   21      H       4.0680574000    -2.3218177000    -0.0022572000
   22      H      -4.6768656000    -1.9333589000     0.0012083000
   23      H       5.6009389000    -0.3728723000    -0.0008870000
   24      H      -5.6008866000     0.3733224000    -0.0008873000
 ----------------------------------------------------------------
 Nuclear Repulsion Energy =         750.75650888 hartrees
 There are       48 alpha and       48 beta electrons
 Requested basis set is 6-31+G(d)
 There are 90 shells and 286 basis functions

 Total QAlloc Memory Limit   8000 MB
 Mega-Array Size       188 MB
 MEM_STATIC part       192 MB


 Q-Chem warning in module libscrf/libscrf/pcm/PCM_CLASS/read_pcm_solvent.C, line 176:

 Using eps_inf = 1.78 (water) for excited-state calculations

 Using C-PCM dielectric factor f(eps) = (eps-1)/eps = 0.500000
 Static dielectric constant eps = 2.00
 Discretize the solute cavity surface with Lebedev spheres
	Using 110 Lebedev grid points for each H atom
	Using 194 Lebedev grid points for other atoms
	Atomic van der Waals radii (Bondi set) will be scaled by 1.20
 Using smooth SwiG surface discretization
 Remove points where switching function is < 1.0e-08
 Keep 1642 surface tesserae and discard 2174 interior tesserae
 Molecular Surface Area = 235.768 Angst**2

 A cutoff of  1.0D-12 yielded   3225 shell pairs
 There are     34841 function pairs
 Smallest overlap matrix eigenvalue = 2.20E-06

 Scale SEOQF with 1.000000e-02/1.000000e-01/1.000000e-01

 Standard Electronic Orientation quadrupole field applied
 Nucleus-field energy     =     0.0000000112 hartrees
 Guess from superposition of atomic densities
 Warning:  Energy on first SCF cycle will be non-variational
 SAD guess density has 96.000000 electrons

 -----------------------------------------------------------------------
  General SCF calculation program by
  Eric Jon Sundstrom, Paul Horn, Yuezhi Mao, Dmitri Zuev, Alec White,
  David Stuck, Shaama M.S., Shane Yost, Joonho Lee, David Small,
  Daniel Levine, Susi Lehtola, Hugh Burton, Evgeny Epifanovsky,
  Bang C. Huynh
 -----------------------------------------------------------------------
 Exchange:     0.2220 Hartree-Fock + 1.0000 wB97X-D + LR-HF
 Correlation:  1.0000 wB97X-D
 Using SG-2 standard quadrature grid
 Dispersion:   Grimme D
 using 8 threads for integral computing
 -------------------------------------------------------
 OpenMP Integral computing Module                
 Release: version 1.0, May 2013, Q-Chem Inc. Pittsburgh 
 -------------------------------------------------------
 C-PCM solvent model [f = (eps-1)/eps], solve by matrix inversion
 A restricted SCF calculation will be
 performed using DIIS
 SCF converges when DIIS error is below 1.0e-08
 User-specified cutoff of 10e-12
 used for neglect of 2-electron integrals.
 A cutoff of 10e-12
 used for neglect of overlap integrals.
 Incremental Fock algorithm is on at the start.
 ---------------------------------------
  Cycle       Energy         DIIS error
 ---------------------------------------
    1    -576.8091633506      4.31e-02  
    2    -572.4975678831      2.48e-03  
    3    -572.5468141052      1.60e-03  
    4    -572.5717098086      4.00e-04  
    5    -572.5734134468      1.45e-04  
    6    -572.5736841528      2.72e-05  
    7    -572.5736994461      1.07e-05  
    8    -572.5737016419      4.48e-06  
    9    -572.5737020835      8.58e-07  
   10    -572.5737021012      4.01e-07  
   11    -572.5737021039      1.12e-07  
   12    -572.5737021044      2.57e-08  
   13    -572.5737021044      1.47e-08  
   14    -572.5737021044      4.57e-09  Convergence criterion met
 ---------------------------------------
 SCF time:   CPU 259.22s  wall 33.00s 

************** Final PCM Free Energy Summary **************
 G_electrostatic  =      -0.00481617 hartree =      -3.02219414 kcal/mol
 G_cavitation     =       0.00000000 hartree =       0.00000000 kcal/mol
 G_dispersion     =       0.00000000 hartree =       0.00000000 kcal/mol
 G_repulsion      =       0.00000000 hartree =       0.00000000 kcal/mol
 --------------------------------------------------
 Non-electrostatic Free Energy =       0.00000000 hartree =       0.00000000 kcal/mol
 Total                         =      -0.00481617 hartree =      -3.02219414 kcal/mol
 --------------------------------------------------
 SCF Energy (H0 + V/2)                       =    -572.57370210 
 Solute Internal Energy (H0)                 =    -572.56888593 
 Total Free Energy (H0 + V/2 + non-elec)     =    -572.57370210 hartree
                                             = -359295.42266986 kcal/mol
***********************************************************

 SCF   energy =  -572.57370210
 Total energy =  -572.57370210
 Integrated density by DFT XC:
   Number of electrons = 96
   Numerical integral  =    96.002290476903
   Relative error      =     0.0023859134 %

 CIS/TDDFT Memory Preview
 --------------------------
 	O*V dim = 22848
 	Mem per subspace vector = 0.2 Mb
 	Max subspace size fits in available memory
 Direct TDDFT/TDA calculation will be performed
 Exchange:     0.2220 Hartree-Fock + 1.0000 wB97X-D + LR-HF
 Correlation:  1.0000 wB97X-D
 Using SG-2 standard quadrature grid
 Dispersion:   Grimme D
 Singlet excitation energies requested
 Adding PCM contribution to the XC response (LR-PCM)
 Optical dielectric constant (eps_inf) =  1.78
 CIS energy converged when residual is below 10e- 6
 ---------------------------------------------------
 Iter    Rts Conv    Rts Left    Ttl Dev     Max Dev
 ---------------------------------------------------
   1         0          10      0.006162    0.001109
   2         0          10      0.002267    0.000373
   3         0          10      0.000976    0.000219
   4         0          10      0.000504    0.000177
   5         0          10      0.000237    0.000079
   6         1           9      0.000351    0.000229
   7         3           7      0.000171    0.000092
   8         6           4      0.000114    0.000065
   9         7           3      0.000056    0.000032
  10         7           3      0.000027    0.000014
  11         8           2      0.000014    0.000006
  12         8           2      0.000008    0.000002
  13        10           0      0.000005    0.000001    Roots Converged
 ---------------------------------------------------
 
 ---------------------------------------------------
         TDDFT/TDA Excitation Energies              
 ---------------------------------------------------

 Excited state   1: excitation energy (eV) =       2.8474
 Total energy for state   1:                  -572.46906303 au
    Multiplicity: Singlet
    Trans. Mom.:  0.0029 X  -0.0001 Y   0.0000 Z
    Strength   :     0.0000005896
    D(   47) --> V(    1) amplitude =  0.9730

 Excited state   2: excitation energy (eV) =       4.1117
 Total energy for state   2:                  -572.42259825 au
    Multiplicity: Singlet
    Trans. Mom.: -3.2980 X   0.1207 Y  -0.0000 Z
    Strength   :     1.0971435184
    D(   48) --> V(    1) amplitude =  0.9749

 Excited state   3: excitation energy (eV) =       4.7443
 Total energy for state   3:                  -572.39935202 au
    Multiplicity: Singlet
    Trans. Mom.:  0.2676 X   0.6135 Y  -0.0000 Z
    Strength   :     0.0520775100
    D(   45) --> V(    4) amplitude =  0.2122
    D(   46) --> V(    1) amplitude =  0.8868
    D(   48) --> V(    2) amplitude =  0.3358

 Excited state   4: excitation energy (eV) =       4.7592
 Total energy for state   4:                  -572.39880614 au
    Multiplicity: Singlet
    Trans. Mom.:  0.0001 X   0.0003 Y   0.0005 Z
    Strength   :     0.0000000348
    D(   45) --> V(    1) amplitude =  0.8901
    D(   46) --> V(    4) amplitude =  0.2144
    D(   48) --> V(    3) amplitude =  0.3184

 Excited state   5: excitation energy (eV) =       5.5462
 Total energy for state   5:                  -572.36988447 au
    Multiplicity: Singlet
    Trans. Mom.:  0.0001 X   0.0000 Y  -0.0010 Z
    Strength   :     0.0000001249
    D(   44) --> V(    1) amplitude =  0.9010

 Excited state   6: excitation energy (eV) =       6.1356
 Total energy for state   6:                  -572.34822443 au
    Multiplicity: Singlet
    Trans. Mom.: -1.3225 X  -1.2759 Y   0.0000 Z
    Strength   :     0.5076090183
    D(   44) --> V(    3) amplitude = -0.3046
    D(   45) --> V(    4) amplitude =  0.2728
    D(   46) --> V(    1) amplitude = -0.4174
    D(   46) --> V(   11) amplitude =  0.2379
    D(   48) --> V(    2) amplitude =  0.7371

 Excited state   7: excitation energy (eV) =       6.1603
 Total energy for state   7:                  -572.34731692 au
    Multiplicity: Singlet
    Trans. Mom.: -0.0400 X  -0.0370 Y   0.0000 Z
    Strength   :     0.0004482564
    D(   47) --> V(    2) amplitude =  0.9864

 Excited state   8: excitation energy (eV) =       6.1929
 Total energy for state   8:                  -572.34611617 au
    Multiplicity: Singlet
    Trans. Mom.: -0.0001 X  -0.0001 Y  -0.0005 Z
    Strength   :     0.0000000492
    D(   44) --> V(    1) amplitude = -0.2761
    D(   44) --> V(    2) amplitude = -0.3027
    D(   45) --> V(    1) amplitude = -0.3783
    D(   45) --> V(   11) amplitude =  0.2282
    D(   46) --> V(    4) amplitude =  0.2723
    D(   48) --> V(    3) amplitude =  0.7008

 Excited state   9: excitation energy (eV) =       6.2537
 Total energy for state   9:                  -572.34388207 au
    Multiplicity: Singlet
    Trans. Mom.:  0.0000 X   0.0000 Y  -0.0289 Z
    Strength   :     0.0001277878
    D(   42) --> V(    1) amplitude = -0.2798
    D(   47) --> V(    3) amplitude =  0.7653
    D(   47) --> V(    4) amplitude = -0.5379

 Excited state  10: excitation energy (eV) =       6.3466
 Total energy for state  10:                  -572.34046820 au
    Multiplicity: Singlet
    Trans. Mom.:  0.0000 X  -0.0000 Y   0.0474 Z
    Strength   :     0.0003499911
    D(   42) --> V(    1) amplitude =  0.2537
    D(   47) --> V(    3) amplitude =  0.6214
    D(   47) --> V(    4) amplitude =  0.7029
 
 ---------------------------------------------------
  SETman timing summary (seconds)
  CPU time               752.00s
  System time              0.00s
  Wall time              105.58s
 
 --------------------------------------------------------------
 
                    Orbital Energies (a.u.)
 --------------------------------------------------------------
 
 Alpha MOs
 -- Occupied --
-14.5119 -14.5114 -10.3392 -10.3392 -10.3158 -10.3158 -10.3145 -10.3145
-10.3142 -10.3142 -10.3136 -10.3136 -10.3131 -10.3131  -1.1513  -0.9826
 -0.9644  -0.9040  -0.8587  -0.8579  -0.8482  -0.7816  -0.7201  -0.7148
 -0.6980  -0.6642  -0.6284  -0.6020  -0.5774  -0.5679  -0.5454  -0.5345
 -0.5318  -0.5210  -0.5190  -0.5154  -0.4916  -0.4744  -0.4504  -0.4487
 -0.4461  -0.4321  -0.4321  -0.3591  -0.3403  -0.3397  -0.3237  -0.3085
 -- Virtual --
 -0.0273   0.0483   0.0522   0.0637   0.0697   0.0766   0.0817   0.0896
  0.0940   0.1044   0.1045   0.1058   0.1067   0.1177   0.1256   0.1270
  0.1284   0.1311   0.1431   0.1444   0.1528   0.1569   0.1696   0.1745
  0.1804   0.1876   0.1908   0.1968   0.1976   0.2009   0.2070   0.2140
  0.2193   0.2210   0.2218   0.2273   0.2365   0.2396   0.2404   0.2509
  0.2578   0.2586   0.2639   0.2691   0.2718   0.2723   0.2789   0.2833
  0.2841   0.2872   0.3009   0.3053   0.3054   0.3078   0.3093   0.3140
  0.3225   0.3277   0.3356   0.3424   0.3439   0.3456   0.3516   0.3564
  0.3639   0.3657   0.3683   0.3781   0.3912   0.3995   0.4018   0.4172
  0.4208   0.4287   0.4358   0.4404   0.4530   0.4624   0.4803   0.4840
  0.5142   0.5373   0.5532   0.5944   0.6661   0.6671   0.7034   0.7083
  0.7322   0.7387   0.7438   0.7730   0.7750   0.7819   0.7927   0.7989
  0.8006   0.8141   0.8161   0.8248   0.8286   0.8385   0.8394   0.8407
  0.8427   0.8480   0.8804   0.8820   0.9053   0.9069   0.9090   0.9436
  0.9799   0.9925   1.0129   1.0205   1.0366   1.0400   1.0468   1.0676
  1.0692   1.0698   1.0839   1.0941   1.1154   1.1219   1.1251   1.1379
  1.1577   1.1787   1.1801   1.2014   1.2074   1.2297   1.2456   1.2634
  1.2723   1.3025   1.3073   1.3129   1.3151   1.3295   1.3699   1.3893
  1.3925   1.4046   1.4122   1.4253   1.4907   1.4947   1.5075   1.5084
  1.5094   1.5104   1.5473   1.5529   1.5606   1.5641   1.5649   1.5800
  1.5805   1.6374   1.6629   1.6856   1.8218   1.8420   1.8967   1.9293
  1.9391   1.9540   1.9603   1.9803   2.0167   2.0302   2.0528   2.0543
  2.0760   2.0899   2.0982   2.1112   2.1490   2.2001   2.2088   2.2269
  2.2334   2.2390   2.2493   2.2516   2.2677   2.2850   2.3185   2.3293
  2.3428   2.3819   2.3867   2.3875   2.4403   2.5039   2.5514   2.5811
  2.6165   2.6579   2.6582   2.6859   2.7068   2.7113   2.7303   2.7480
  2.7753   2.8188   2.8379   2.8399   2.8477   2.8690   2.8708   2.8917
  2.9624   3.0410   3.0495   3.1619   3.2414   3.3731   3.5128   3.5304
  4.2842   4.3372   4.3419   4.3463   4.3707   4.4502   4.4645   4.4846
  4.4900   4.5069   4.5853   4.6085   4.8142   4.8448
 --------------------------------------------------------------
 
          Ground-State Mulliken Net Atomic Charges

     Atom                 Charge (a.u.)
  ----------------------------------------
      1 N                    -0.062368
      2 N                    -0.062409
      3 C                    -0.736954
      4 C                    -0.736923
      5 C                     0.264621
      6 C                     0.424906
      7 C                     0.424852
      8 C                     0.264581
      9 C                    -0.429247
     10 C                    -0.512381
     11 C                    -0.512316
     12 C                    -0.429230
     13 C                    -0.119327
     14 C                    -0.119327
     15 H                     0.236647
     16 H                     0.249407
     17 H                     0.249406
     18 H                     0.236647
     19 H                     0.229123
     20 H                     0.228723
     21 H                     0.228723
     22 H                     0.229123
     23 H                     0.226861
     24 H                     0.226860
  ----------------------------------------
  Sum of atomic charges =     0.000000

 -----------------------------------------------------------------
                    Cartesian Multipole Moments
 -----------------------------------------------------------------
    Charge (ESU x 10^10)
                 0.0000
    Dipole Moment (Debye)
         X       0.0001      Y       0.0001      Z      -0.0016
       Tot       0.0016
    Quadrupole Moments (Debye-Ang)
        XX     -59.0476     XY      -0.0843     YY     -71.6875
        XZ       0.0000     YZ      -0.0000     ZZ     -87.9461
    Octopole Moments (Debye-Ang^2)
       XXX      -0.0016    XXY      -0.0103    XYY      -0.0011
       YYY      -0.0371    XXZ      -0.0187    XYZ       0.0513
       YYZ      -0.0016    XZZ      -0.0015    YZZ      -0.0155
       ZZZ       0.0177
    Hexadecapole Moments (Debye-Ang^3)
      XXXX   -4028.6177   XXXY       6.0849   XXYY    -774.1524
      XYYY       7.9341   YYYY    -551.0927   XXXZ      -0.0002
      XXYZ      -0.0000   XYYZ      -0.0000   YYYZ      -0.0000
      XXZZ    -918.7709   XYZZ       3.7350   YYZZ    -133.5215
      XZZZ      -0.0003   YZZZ      -0.0000   ZZZZ    -103.3575
 -----------------------------------------------------------------
 Total job time:  140.12s(wall), 1016.21s(cpu) 
 Tue Dec  9 19:20:18 2025

        *************************************************************
        *                                                           *
        *  Thank you very much for using Q-Chem.  Have a nice day.  *
        *                                                           *
        *************************************************************


