
Running Job 1 of 1 135_gas.in
qchem 135_gas.in_3354941.0 /scratch1/hulinfen/qchem3354941/ 1
/apps/generic/qchem/6.3.0/openmp/exe/qcprog.exe_s 135_gas.in_3354941.0 /scratch1/hulinfen/qchem3354941/
                  Welcome to Q-Chem
     A Quantum Leap Into The Future Of Chemistry


 Q-Chem 6.3, Q-Chem, Inc., Pleasanton, CA (2025)

 License issued to: University of Southern California (site)

 E. Epifanovsky,  A. T. B. Gilbert,  Xintian Feng,  Joonho Lee,  Yuezhi Mao,  
 N. Mardirossian,  P. Pokhilko,  A. White,  M. Wormit,  M. P. Coons,  
 A. L. Dempwolff,  Zhengting Gan,  D. Hait,  P. R. Horn,  L. D. Jacobson,  
 I. Kaliman,  J. Kussmann,  A. W. Lange,  Ka Un Lao,  D. S. Levine,  Jie Liu,  
 S. C. McKenzie,  A. F. Morrison,  K. D. Nanda,  F. Plasser,  D. R. Rehn,  
 M. L. Vidal,  Zhi-Qiang You,  Ying Zhu,  Huseyin Aksu,  B. Alam,  
 B. Albrecht,  A. Aldossary,  E. Alguire,  J. H. Andersen,  
 J. E. Arias-Martinez,  V. Athavale,  F. Ballesteros,  D. Barton,  K. Begam,  
 A. Behn,  N. Bellonzi,  Y. A. Bernard,  E. J. Berquist,  H. Burton,  
 S. Camps,  A. Carreras,  K. Carter-Fenk,  Mathew Chow,  Romit Chakraborty,  
 Chandrima Chakravarty,  Junhan Chen,  A. D. Chien,  K. D. Closser,  
 V. Cofer-Shabica,  L. Cunha,  S. Dasgupta,  Jia Deng,  Joseph Dickinson,  
 M. de Wergifosse,  M. Diedenhofen,  L. B. Dittmer,  Hainam Do,  Wenjie Dou,  
 S. Ehlert,  Po-Tung Fang,  S. Fatehi,  Qingguo Feng,  Jonathan Fetherolf,  
 T. Friedhoff,  Thomas Froitzheim,  Sarai Folkestad,  B. Ganoe,  J. Gayvert,  
 Qinghui Ge,  G. Gidofalvi,  M. Gimferrer,  G. Giudetti,  M. Goldey,  
 Montgomery Gray,  J. Gomes,  C. Gonzalez-Espinoza,  S. Gulania,  A. Gunina,  
 J. A. Gyamfi,  M. W. D. Hanson-Heine,  P. H. P. Harbach,  A. W. Hauser,  
 M. F. Herbst,  M. Hernandez Vera,  M. Hodecker,  Z. C. Holden,  S. Houck,  
 Xunkun Huang,  Kerwin Hui,  B. C. Huynh,  K. Ikeda,  M. Ivanov,  
 Nayanthara K. Jayadev,  Hyunjun Ji,  Zuxin Jin,  Hanjie Jiang,  
 Subrata Jana,  B. Kaduk,  S. Kaehler,  R. Kang,  Richard Kang,  
 K. Khistyaev,  Jaehoon Kim,  Yongbin Kim,  P. Klunzinger,  Z. Koczor-Benda,  
 Joong Hoon Koh,  D. Kosenkov,  Saikiran Kotaru,  L. Koulias,  T. Kowalczyk,  
 C. M. Krauter,  K. Kue,  A. Kunitsa,  T. Kus,  A. Landau,  C. W. Lander,  
 K. V. Lawler,  D. Lefrancois,  S. Lehtola,  Rain Li,  Shaozhi Li,  
 Tao E. Li,  Yi-Pei Li,  Jiashu Liang,  M. Liebenthal,  Hung-Hsuan Lin,  
 You-Sheng Lin,  Fenglai Liu,  Kuan-Yu Liu,  Xiao Liu,  M. Loipersberger,  
 A. Luenser,  C. Malbon,  Aniket Mandal,  Manisha,  A. Manjanath,  
 P. Manohar,  E. Mansoor,  S. F. Manzer,  Shan-Ping Mao,  A. V. Marenich,  
 T. Markovich,  S. Mason,  F. Matz,  S. A. Maurer,  Samuel May,  
 Alexandra McIsaac,  P. F. McLaughlin,  M. F. S. J. Menger,  J.-M. Mewes,  
 S. A. Mewes,  R. E. Moorby,  P. Morgante,  Mohammad Mostafanejad,  
 Madhubani Mukherjee,  J. W. Mullinax,  Quyen Nguyen,  Avik Kumar Ojha,  
 K. J. Oosterbaan,  Eno Paenurk,  Xiaoliang Pan,  G. Paran,  V. Parravicini,  
 R. L. Patterson,  Alexander C. Paul,  Suranjan K. Paul,  F. Pavosevic,  
 Zheng Pei,  P. Pokhilko,  S. Prager,  E. I. Proynov,  E. Ramos,  B. Rana,  
 A. E. Rask,  A. Rettig,  R. M. Richard,  F. Rob,  E. Rossomme,  S. Roy,  
 T. Scheele,  M. Scheurer,  M. Schneider,  P. E. Schneider,  Tim K. Schramm,  
 N. Sergueev,  S. M. Sharada,  Hengyuan Shen,  W. Skomorowski,  D. W. Small,  
 C. J. Stein,  Alistair J. Sterling,  Yingli Su,  Yu-Chuan Su,  
 E. J. Sundstrom,  J. Talbot,  J. A. Tan,  Zhen Tao,  Hung-Hsuan Teh,  
 J. Thirman,  C. Titeca,  N. Tkachenko,  Hung-Yi Tsai,  T. Tsuchimochi,  
 N. M. Tubman,  C. Utku,  S. P. Veccham,  O. Vydrov,  Z. Wang,  Rahel Weiss,  
 J. Wenzel,  Jonathan Wong,  J. Witte,  H. Wu,  Yanze Wu,  A. Yamada,  
 Chou-Hsun Yang,  Kun Yao,  S. Yeganeh,  S. R. Yost,  Qi Yu,  A. Zech,  
 F. Zeller,  Chongxiao Zhao,  T. Zhao,  Igor Ying Zhang,  Xing Zhang,  
 Yu Zhang,  D. Zuev,  A. Aspuru-Guzik,  A. T. Bell,  N. A. Besley,  
 K. B. Bravaya,  B. R. Brooks,  D. Casanova,  Jeng-Da Chai,  Hsing-Ta Chen,  
 S. Coriani,  C. J. Cramer,  A. E. DePrince, III,  R. A. DiStasio Jr.,  
 A. Dreuw,  B. D. Dunietz,  T. R. Furlani,  W. A. Goddard III,  S. Grimme,  
 S. Hammes-Schiffer,  T. Head-Gordon,  W. J. Hehre,  Chao-Ping Hsu,  
 T.-C. Jagau,  Yousung Jung,  A. Klamt,  Jing Kong,  D. S. Lambrecht,  
 Xiangyuan Li,  WanZhen Liang,  N. J. Mayhall,  C. W. McCurdy,  J. B. Neaton,  
 T. Neudecker,  C. Ochsenfeld,  J. A. Parkhill,  R. Peverati,  
 V. A. Rassolov,  Haisheng Ren,  Yihan Shao,  L. V. Slipchenko,  
 R. P. Steele,  J. E. Subotnik,  A. J. W. Thom,  A. Tkatchenko,  
 D. G. Truhlar,  T. Van Voorhis,  Fan Wang,  T. A. Wesolowski,  K. B. Whaley,  
 H. L. Woodcock III,  P. M. Zimmerman,  S. Faraji,  P. M. W. Gill,  
 M. Head-Gordon,  J. M. Herbert,  A. I. Krylov

 Contributors to earlier versions of Q-Chem not listed above: 
 R. D. Adamson,  B. Austin,  R. Baer,  J. Baker,  G. J. O. Beran,  
 K. Brandhorst,  S. T. Brown,  E. F. C. Byrd,  Arup K. Chakraborty,  
 G. K. L. Chan,  Chun-Min Chang,  Yunqing Chen,  C.-L. Cheng,  
 Siu Hung Chien,  D. M. Chipman,  D. L. Crittenden,  H. Dachsel,  
 R. J. Doerksen,  A. D. Dutoi,  R. G. Edgar,  J. Fosso-Tande,  
 L. Fusti-Molnar,  D. Ghosh,  A. Ghysels,  A. Golubeva-Zadorozhnaya,  
 J. Gonthier,  M. S. Gordon,  S. R. Gwaltney,  G. Hawkins,  J. E. Herr,  
 A. Heyden,  S. Hirata,  E. G. Hohenstein,  G. Kedziora,  F. J. Keil,  
 C. Kelley,  Jihan Kim,  R. A. King,  R. Z. Khaliullin,  P. P. Korambath,  
 W. Kurlancheek,  A. Laurent,  A. M. Lee,  M. S. Lee,  S. V. Levchenko,  
 Ching Yeh Lin,  D. Liotard,  E. Livshits,  R. C. Lochan,  I. Lotan,  
 L. A. Martinez-Martinez,  P. E. Maslen,  N. Nair,  D. P. O'Neill,  
 D. Neuhauser,  E. Neuscamman,  C. M. Oana,  R. Olivares-Amaya,  R. Olson,  
 T. M. Perrine,  B. Peters,  P. A. Pieniazek,  A. Prociuk,  Y. M. Rhee,  
 J. Ritchie,  M. A. Rohrdanz,  E. Rosta,  N. J. Russ,  H. F. Schaefer III,  
 M. W. Schmidt,  N. E. Schultz,  S. Sharma,  N. Shenvi,  C. D. Sherrill,  
 A. C. Simmonett,  A. Sodt,  T. Stein,  D. Stuck,  K. S. Thanthiriwatte,  
 V. Vanovschi,  L. Vogt,  Tao Wang,  A. Warshel,  M. A. Watson,  
 C. F. Williams,  Q. Wu,  X. Xu,  Jun Yang,  W. Zhang,  Yan Zhao

   Please cite Q-Chem as follows:
  "Software for the frontiers of quantum chemistry:
   An overview of developments in the Q-Chem 5 package"
   J. Chem. Phys. 155, 084801 (2021)
   https://doi.org/10.1063/5.0055522 (open access)

 Q-Chem 6.3.0 for Intel X86 EM64T Linux

 Parts of Q-Chem use Armadillo 12.8.2 (Cortisol Injector).
 http://arma.sourceforge.net/

 Q-Chem begins on Wed Dec 10 21:52:43 2025  

 Host: 
0

     Scratch files written to /scratch1/hulinfen/qchem3354941//
 May2125 |scratch|qcdevops|jenkins|workspace|build_RNUM -1
 Processing $rem in /apps/generic/qchem/6.3.0/openmp/config/preferences:
 Processing $rem in /home1/hulinfen/.qchemrc:

 Checking the input file for inconsistencies... 	...done.

--------------------------------------------------------------
User input:
--------------------------------------------------------------
$molecule
0 1
N     0.4594356745   -0.7582585902   -0.4282295303
N    -0.4594434796   -0.7582724149    0.4281817324
C     1.7096531456   -0.2737411307    0.0056287733
C    -1.7096545843   -0.2737169194   -0.0056526340
C     1.8657369932    0.4858569948    1.1727737336
C    -1.8657309911    0.4859330072   -1.1727649115
C     2.7998537542   -0.4879000736   -0.8468963184
C    -2.7998549036   -0.4878943255    0.8468681545
C     3.1127414647    1.0198100666    1.4776120126
C    -3.1127280591    1.0199194414   -1.4775749785
C     4.0428103833    0.0448329576   -0.5295832656
C    -4.0428041359    0.0448728653    0.5295834794
C     4.2018607476    0.7999235647    0.6336396383
C    -4.2018470667    0.8000155645   -0.6336066090
H     1.0057672476    0.6635941314    1.8094596586
H    -1.0057609372    0.6636824536   -1.8094470441
H     2.6495651633   -1.0687614175   -1.7520123723
H    -2.6495710439   -1.0687963529    1.7519588848
H     3.2337773378    1.6184943922    2.3757998111
H    -3.2337587902    1.6186438412   -2.3757367690
H     4.8874554838   -0.1232937807   -1.1910641287
H    -4.8874488436   -0.1232671243    1.1910614802
H     5.1705679723    1.2275070827    0.8756795997
H    -5.1705481916    1.2276262662   -0.8756230623
$end

$rem
JOB_TYPE        = SP
METHOD          = wB97X-D
BASIS           = 6-31+G*
GUI             = 2

CIS_N_ROOTS     = 10
CIS_SINGLETS    = TRUE
CIS_TRIPLETS    = FALSE

SCF_ALGORITHM   = diis
MAX_SCF_CYCLES  = 200
SCF_CONVERGENCE = 8
THRESH          = 12
$end

--------------------------------------------------------------
 ----------------------------------------------------------------
             Standard Nuclear Orientation (Angstroms)
    I     Atom           X                Y                Z
 ----------------------------------------------------------------
    1      N      -0.4215954145     0.4655195921     0.8945876804
    2      N       0.4215945143    -0.4655066668     0.8945930031
    3      C      -1.7040105571     0.1389146484     0.4100523009
    4      C       1.7040104618    -0.1389078802     0.4100554273
    5      C      -1.9581972890    -1.0108436098    -0.3495685855
    6      C       1.9582013959     1.0108453375    -0.3495717388
    7      C      -2.7182392031     1.0805481354     0.6242183148
    8      C       2.7182351292    -1.0805446381     0.6242257623
    9      C      -3.2265032914    -1.2091611417    -0.8835371726
   10      C       3.2265077441     1.2091542908    -0.8835426580
   11      C      -3.9835664653     0.8694582662     0.0914695704
   12      C       3.9835627067    -0.8694635564     0.0914742844
   13      C      -4.2403775718    -0.2761412703    -0.6636437489
   14      C       4.2403779262     0.2761306472    -0.6636457030
   15      H      -1.1551289262    -1.7179478362    -0.5273106397
   16      H       1.1551357699     1.7179521046    -0.5273162676
   17      H      -2.4919768520     1.9697085847     1.2050975418
   18      H       2.4919686374    -1.9697008219     1.2051099069
   19      H      -3.4230317697    -2.0938908062    -1.4822390214
   20      H       3.4230402333     2.0938796736    -1.4822495349
   21      H      -4.7692688214     1.5999733157     0.2596018051
   22      H       4.7692617307    -1.5999816738     0.2596087776
   23      H      -5.2260746987    -0.4354140377    -1.0912394161
   24      H       5.2260750820     0.4353956464    -1.0912442558
 ----------------------------------------------------------------
 Molecular Point Group                 C1    NOp =  1
 Largest Abelian Subgroup              C1    NOp =  1
 Nuclear Repulsion Energy =         758.43082267 hartrees
 There are       48 alpha and       48 beta electrons
 Requested basis set is 6-31+G(d)
 There are 90 shells and 286 basis functions

 Total QAlloc Memory Limit   8000 MB
 Mega-Array Size       188 MB
 MEM_STATIC part       192 MB

 A cutoff of  1.0D-12 yielded   3285 shell pairs
 There are     35411 function pairs
 Smallest overlap matrix eigenvalue = 2.63E-06

 Scale SEOQF with 1.000000e-01/1.000000e-01/1.000000e-01

 Standard Electronic Orientation quadrupole field applied
 Nucleus-field energy     =     0.0000000314 hartrees
 Guess from superposition of atomic densities
 Warning:  Energy on first SCF cycle will be non-variational
 SAD guess density has 96.000000 electrons

 -----------------------------------------------------------------------
  General SCF calculation program by
  Eric Jon Sundstrom, Paul Horn, Yuezhi Mao, Dmitri Zuev, Alec White,
  David Stuck, Shaama M.S., Shane Yost, Joonho Lee, David Small,
  Daniel Levine, Susi Lehtola, Hugh Burton, Evgeny Epifanovsky,
  Bang C. Huynh
 -----------------------------------------------------------------------
 Exchange:     0.2220 Hartree-Fock + 1.0000 wB97X-D + LR-HF
 Correlation:  1.0000 wB97X-D
 Using SG-2 standard quadrature grid
 Dispersion:   Grimme D
 using 8 threads for integral computing
 -------------------------------------------------------
 OpenMP Integral computing Module                
 Release: version 1.0, May 2013, Q-Chem Inc. Pittsburgh 
 -------------------------------------------------------
 A restricted SCF calculation will be
 performed using DIIS
 SCF converges when DIIS error is below 1.0e-08
 User-specified cutoff of 10e-12
 used for neglect of 2-electron integrals.
 A cutoff of 10e-12
 used for neglect of overlap integrals.
 Incremental Fock algorithm is on at the start.
 ---------------------------------------
  Cycle       Energy         DIIS error
 ---------------------------------------
    1    -576.8095629447      4.31e-02  
    2    -572.4655427788      2.53e-03  
    3    -572.5122115978      1.74e-03  
    4    -572.5411572716      4.90e-04  
    5    -572.5436380167      1.89e-04  
    6    -572.5440959861      3.29e-05  
    7    -572.5441213470      1.59e-05  
    8    -572.5441268478      6.02e-06  
    9    -572.5441282563      1.69e-06  
   10    -572.5441283376      7.62e-07  
   11    -572.5441283494      1.65e-07  
   12    -572.5441283504      4.40e-08  
   13    -572.5441283505      2.38e-08  
   14    -572.5441283505      6.37e-09  Convergence criterion met
 ---------------------------------------
 SCF time:   CPU 153.48s  wall 19.00s 
 SCF   energy =  -572.54412835
 Total energy =  -572.54412835
 Integrated density by DFT XC:
   Number of electrons = 96
   Numerical integral  =    95.993150258273
   Relative error      =     0.0071351476 %

 CIS/TDDFT Memory Preview
 --------------------------
 	O*V dim = 22848
 	Mem per subspace vector = 0.2 Mb
 	Max subspace size fits in available memory
 Direct TDDFT/TDA calculation will be performed
 Exchange:     0.2220 Hartree-Fock + 1.0000 wB97X-D + LR-HF
 Correlation:  1.0000 wB97X-D
 Using SG-2 standard quadrature grid
 Dispersion:   Grimme D
 Singlet excitation energies requested
 CIS energy converged when residual is below 10e- 6
 ---------------------------------------------------
 Iter    Rts Conv    Rts Left    Ttl Dev     Max Dev
 ---------------------------------------------------
   1         0          10      0.006251    0.001126
   2         0          10      0.002218    0.000321
   3         0          10      0.001133    0.000238
   4         0          10      0.000732    0.000333
   5         0          10      0.000331    0.000153
   6         1           9      0.000176    0.000097
   7         5           5      0.000104    0.000055
   8         6           4      0.000047    0.000024
   9         7           3      0.000026    0.000011
  10         8           2      0.000014    0.000006
  11         8           2      0.000009    0.000003
  12         9           1      0.000006    0.000001
  13        10           0      0.000006    0.000001    Roots Converged
 ---------------------------------------------------
 
 ---------------------------------------------------
         TDDFT/TDA Excitation Energies              
 ---------------------------------------------------

 Excited state   1: excitation energy (eV) =       1.8938
 Total energy for state   1:                  -572.47453092 au
    Multiplicity: Singlet
    Trans. Mom.:  1.2206 X   0.0490 Y   0.0000 Z
    Strength   :     0.0692373932
    D(   45) --> V(    1) amplitude = -0.3715
    D(   48) --> V(    1) amplitude =  0.8848

 Excited state   2: excitation energy (eV) =       4.3734
 Total energy for state   2:                  -572.38340980 au
    Multiplicity: Singlet
    Trans. Mom.:  2.5441 X   0.2117 Y   0.0000 Z
    Strength   :     0.6982784308
    D(   45) --> V(    1) amplitude =  0.5293
    D(   47) --> V(    1) amplitude =  0.7187
    D(   48) --> V(    1) amplitude =  0.3693

 Excited state   3: excitation energy (eV) =       4.4580
 Total energy for state   3:                  -572.38029811 au
    Multiplicity: Singlet
    Trans. Mom.: -0.0000 X  -0.0000 Y   0.1981 Z
    Strength   :     0.0042865590
    D(   46) --> V(    1) amplitude =  0.8717
    D(   48) --> V(    2) amplitude =  0.3992

 Excited state   4: excitation energy (eV) =       4.5046
 Total energy for state   4:                  -572.37858881 au
    Multiplicity: Singlet
    Trans. Mom.:  1.2269 X  -0.2910 Y   0.0000 Z
    Strength   :     0.1754536751
    D(   45) --> V(    1) amplitude =  0.6836
    D(   47) --> V(    1) amplitude = -0.5316
    D(   48) --> V(    3) amplitude = -0.3645

 Excited state   5: excitation energy (eV) =       4.9742
 Total energy for state   5:                  -572.36133090 au
    Multiplicity: Singlet
    Trans. Mom.:  0.0000 X  -0.0000 Y  -0.4564 Z
    Strength   :     0.0253898246
    D(   44) --> V(    1) amplitude =  0.8924
    D(   48) --> V(    4) amplitude = -0.2278

 Excited state   6: excitation energy (eV) =       5.3241
 Total energy for state   6:                  -572.34847194 au
    Multiplicity: Singlet
    Trans. Mom.: -0.0000 X   0.0000 Y  -0.3931 Z
    Strength   :     0.0201591453
    D(   46) --> V(    1) amplitude = -0.4097
    D(   48) --> V(    2) amplitude =  0.8535

 Excited state   7: excitation energy (eV) =       5.4169
 Total energy for state   7:                  -572.34506062 au
    Multiplicity: Singlet
    Trans. Mom.:  0.4220 X  -0.7875 Y   0.0000 Z
    Strength   :     0.1059285658
    D(   45) --> V(    1) amplitude =  0.2166
    D(   47) --> V(    1) amplitude = -0.3281
    D(   48) --> V(    3) amplitude =  0.8621

 Excited state   8: excitation energy (eV) =       5.5887
 Total energy for state   8:                  -572.33874682 au
    Multiplicity: Singlet
    Trans. Mom.:  0.0000 X  -0.0000 Y  -0.3817 Z
    Strength   :     0.0199487880
    D(   48) --> V(    4) amplitude =  0.8663

 Excited state   9: excitation energy (eV) =       6.0552
 Total energy for state   9:                  -572.32160385 au
    Multiplicity: Singlet
    Trans. Mom.: -1.0031 X  -0.1474 Y  -0.0000 Z
    Strength   :     0.1524999860
    D(   48) --> V(   10) amplitude =  0.8391

 Excited state  10: excitation energy (eV) =       6.1803
 Total energy for state  10:                  -572.31700724 au
    Multiplicity: Singlet
    Trans. Mom.:  0.0000 X   0.0000 Y  -0.0448 Z
    Strength   :     0.0003032974
    D(   42) --> V(    1) amplitude = -0.2289
    D(   48) --> V(    5) amplitude =  0.7483
    D(   48) --> V(    8) amplitude =  0.2864
    D(   48) --> V(    9) amplitude = -0.2533
    D(   48) --> V(   14) amplitude =  0.2615
 
 ---------------------------------------------------
  SETman timing summary (seconds)
  CPU time               615.56s
  System time              0.00s
  Wall time               77.51s
 
 --------------------------------------------------------------
 
                    Orbital Energies (a.u.)
 --------------------------------------------------------------
 
 Alpha MOs
 -- Occupied --
-14.5084 -14.5079 -10.3434 -10.3434 -10.3170 -10.3170 -10.3157 -10.3157
-10.3155 -10.3155 -10.3151 -10.3151 -10.3144 -10.3144  -1.1456  -0.9831
 -0.9645  -0.9053  -0.8597  -0.8588  -0.8493  -0.7836  -0.7207  -0.7141
 -0.7036  -0.6657  -0.6332  -0.6031  -0.5797  -0.5648  -0.5580  -0.5367
 -0.5355  -0.5213  -0.5183  -0.5017  -0.4960  -0.4670  -0.4547  -0.4498
 -0.4473  -0.4344  -0.4283  -0.3522  -0.3453  -0.3399  -0.3392  -0.2787
 -- Virtual --
 -0.0373   0.0489   0.0521   0.0625   0.0694   0.0732   0.0822   0.0872
  0.0886   0.0921   0.0990   0.1018   0.1020   0.1120   0.1189   0.1243
  0.1256   0.1326   0.1421   0.1487   0.1557   0.1565   0.1636   0.1774
  0.1823   0.1903   0.1917   0.1945   0.1987   0.2028   0.2032   0.2037
  0.2166   0.2188   0.2217   0.2314   0.2314   0.2455   0.2456   0.2462
  0.2479   0.2542   0.2567   0.2713   0.2735   0.2755   0.2777   0.2819
  0.2858   0.2866   0.2882   0.2974   0.3058   0.3080   0.3093   0.3126
  0.3201   0.3208   0.3285   0.3399   0.3434   0.3473   0.3476   0.3542
  0.3592   0.3620   0.3698   0.3753   0.3791   0.3853   0.4015   0.4157
  0.4189   0.4206   0.4328   0.4342   0.4410   0.4529   0.4646   0.4687
  0.5002   0.5090   0.5511   0.5685   0.6541   0.6608   0.6936   0.7034
  0.7166   0.7297   0.7570   0.7637   0.7681   0.7768   0.8003   0.8017
  0.8081   0.8191   0.8247   0.8257   0.8298   0.8361   0.8514   0.8616
  0.8683   0.8738   0.8904   0.8967   0.9038   0.9159   0.9260   0.9712
  0.9870   0.9917   1.0123   1.0233   1.0357   1.0359   1.0464   1.0509
  1.0656   1.0726   1.0943   1.1017   1.1095   1.1190   1.1334   1.1364
  1.1593   1.1613   1.1661   1.1758   1.1774   1.2043   1.2221   1.2275
  1.2326   1.2607   1.2698   1.2741   1.3053   1.3354   1.3471   1.3564
  1.3774   1.3820   1.4124   1.4635   1.4668   1.4877   1.4985   1.5162
  1.5165   1.5319   1.5335   1.5560   1.5649   1.5667   1.5676   1.5808
  1.5818   1.5901   1.6496   1.7724   1.7938   1.8775   1.8843   1.9032
  1.9178   1.9361   1.9567   1.9792   2.0262   2.0279   2.0438   2.0620
  2.0765   2.0865   2.0908   2.0917   2.1551   2.1995   2.2051   2.2090
  2.2311   2.2316   2.2344   2.2551   2.2562   2.2754   2.3127   2.3257
  2.3554   2.3729   2.3839   2.3888   2.4584   2.4816   2.5043   2.5503
  2.6187   2.6437   2.6612   2.6888   2.7021   2.7137   2.7316   2.7404
  2.7674   2.8191   2.8309   2.8355   2.8534   2.8692   2.8712   2.9039
  2.9623   3.0327   3.0630   3.0875   3.2580   3.3204   3.5071   3.5156
  4.2583   4.3343   4.3411   4.3481   4.3511   4.4015   4.4064   4.4850
  4.4875   4.5003   4.5376   4.5774   4.8109   4.8347
 --------------------------------------------------------------
 
          Ground-State Mulliken Net Atomic Charges

     Atom                 Charge (a.u.)
  ----------------------------------------
      1 N                    -0.049525
      2 N                    -0.049525
      3 C                    -0.702325
      4 C                    -0.702326
      5 C                     0.422196
      6 C                     0.422189
      7 C                     0.130533
      8 C                     0.130536
      9 C                    -0.498559
     10 C                    -0.498556
     11 C                    -0.274430
     12 C                    -0.274429
     13 C                    -0.132996
     14 C                    -0.132997
     15 H                     0.240953
     16 H                     0.240953
     17 H                     0.225275
     18 H                     0.225275
     19 H                     0.213874
     20 H                     0.213874
     21 H                     0.213574
     22 H                     0.213574
     23 H                     0.211431
     24 H                     0.211431
  ----------------------------------------
  Sum of atomic charges =     0.000000

 -----------------------------------------------------------------
                    Cartesian Multipole Moments
 -----------------------------------------------------------------
    Charge (ESU x 10^10)
                 0.0000
    Dipole Moment (Debye)
         X       0.0000      Y      -0.0000      Z      -1.3681
       Tot       1.3681
    Quadrupole Moments (Debye-Ang)
        XX     -64.3789     XY      -2.2585     YY     -76.9387
        XZ      -0.0000     YZ      -0.0000     ZZ     -83.9215
    Octopole Moments (Debye-Ang^2)
       XXX      -0.0001    XXY      -0.0001    XYY      -0.0001
       YYY      -0.0001    XXZ     -22.6936    XYZ     -21.8128
       YYZ      -3.7249    XZZ       0.0001    YZZ       0.0000
       ZZZ       2.9249
    Hexadecapole Moments (Debye-Ang^3)
      XXXX   -3811.4955   XXXY     -76.6941   XXYY    -746.5300
      XYYY     -10.8312   YYYY    -482.5667   XXXZ      -0.0007
      XXYZ       0.0000   XYYZ       0.0001   YYYZ       0.0000
      XXZZ    -788.7891   XYZZ      12.5431   YYZZ    -125.8921
      XZZZ      -0.0002   YZZZ      -0.0001   ZZZZ    -323.8593
 -----------------------------------------------------------------
 Total job time:  97.96s(wall), 772.73s(cpu) 
 Wed Dec 10 21:54:21 2025

        *************************************************************
        *                                                           *
        *  Thank you very much for using Q-Chem.  Have a nice day.  *
        *                                                           *
        *************************************************************


