
Running Job 1 of 1 165_gas.in
qchem 165_gas.in_352527.0 /scratch1/hulinfen/qchem352527/ 1
/apps/generic/qchem/6.3.0/openmp/exe/qcprog.exe_s 165_gas.in_352527.0 /scratch1/hulinfen/qchem352527/
                  Welcome to Q-Chem
     A Quantum Leap Into The Future Of Chemistry


 Q-Chem 6.3, Q-Chem, Inc., Pleasanton, CA (2025)

 License issued to: University of Southern California (site)

 E. Epifanovsky,  A. T. B. Gilbert,  Xintian Feng,  Joonho Lee,  Yuezhi Mao,  
 N. Mardirossian,  P. Pokhilko,  A. White,  M. Wormit,  M. P. Coons,  
 A. L. Dempwolff,  Zhengting Gan,  D. Hait,  P. R. Horn,  L. D. Jacobson,  
 I. Kaliman,  J. Kussmann,  A. W. Lange,  Ka Un Lao,  D. S. Levine,  Jie Liu,  
 S. C. McKenzie,  A. F. Morrison,  K. D. Nanda,  F. Plasser,  D. R. Rehn,  
 M. L. Vidal,  Zhi-Qiang You,  Ying Zhu,  Huseyin Aksu,  B. Alam,  
 B. Albrecht,  A. Aldossary,  E. Alguire,  J. H. Andersen,  
 J. E. Arias-Martinez,  V. Athavale,  F. Ballesteros,  D. Barton,  K. Begam,  
 A. Behn,  N. Bellonzi,  Y. A. Bernard,  E. J. Berquist,  H. Burton,  
 S. Camps,  A. Carreras,  K. Carter-Fenk,  Mathew Chow,  Romit Chakraborty,  
 Chandrima Chakravarty,  Junhan Chen,  A. D. Chien,  K. D. Closser,  
 V. Cofer-Shabica,  L. Cunha,  S. Dasgupta,  Jia Deng,  Joseph Dickinson,  
 M. de Wergifosse,  M. Diedenhofen,  L. B. Dittmer,  Hainam Do,  Wenjie Dou,  
 S. Ehlert,  Po-Tung Fang,  S. Fatehi,  Qingguo Feng,  Jonathan Fetherolf,  
 T. Friedhoff,  Thomas Froitzheim,  Sarai Folkestad,  B. Ganoe,  J. Gayvert,  
 Qinghui Ge,  G. Gidofalvi,  M. Gimferrer,  G. Giudetti,  M. Goldey,  
 Montgomery Gray,  J. Gomes,  C. Gonzalez-Espinoza,  S. Gulania,  A. Gunina,  
 J. A. Gyamfi,  M. W. D. Hanson-Heine,  P. H. P. Harbach,  A. W. Hauser,  
 M. F. Herbst,  M. Hernandez Vera,  M. Hodecker,  Z. C. Holden,  S. Houck,  
 Xunkun Huang,  Kerwin Hui,  B. C. Huynh,  K. Ikeda,  M. Ivanov,  
 Nayanthara K. Jayadev,  Hyunjun Ji,  Zuxin Jin,  Hanjie Jiang,  
 Subrata Jana,  B. Kaduk,  S. Kaehler,  R. Kang,  Richard Kang,  
 K. Khistyaev,  Jaehoon Kim,  Yongbin Kim,  P. Klunzinger,  Z. Koczor-Benda,  
 Joong Hoon Koh,  D. Kosenkov,  Saikiran Kotaru,  L. Koulias,  T. Kowalczyk,  
 C. M. Krauter,  K. Kue,  A. Kunitsa,  T. Kus,  A. Landau,  C. W. Lander,  
 K. V. Lawler,  D. Lefrancois,  S. Lehtola,  Rain Li,  Shaozhi Li,  
 Tao E. Li,  Yi-Pei Li,  Jiashu Liang,  M. Liebenthal,  Hung-Hsuan Lin,  
 You-Sheng Lin,  Fenglai Liu,  Kuan-Yu Liu,  Xiao Liu,  M. Loipersberger,  
 A. Luenser,  C. Malbon,  Aniket Mandal,  Manisha,  A. Manjanath,  
 P. Manohar,  E. Mansoor,  S. F. Manzer,  Shan-Ping Mao,  A. V. Marenich,  
 T. Markovich,  S. Mason,  F. Matz,  S. A. Maurer,  Samuel May,  
 Alexandra McIsaac,  P. F. McLaughlin,  M. F. S. J. Menger,  J.-M. Mewes,  
 S. A. Mewes,  R. E. Moorby,  P. Morgante,  Mohammad Mostafanejad,  
 Madhubani Mukherjee,  J. W. Mullinax,  Quyen Nguyen,  Avik Kumar Ojha,  
 K. J. Oosterbaan,  Eno Paenurk,  Xiaoliang Pan,  G. Paran,  V. Parravicini,  
 R. L. Patterson,  Alexander C. Paul,  Suranjan K. Paul,  F. Pavosevic,  
 Zheng Pei,  P. Pokhilko,  S. Prager,  E. I. Proynov,  E. Ramos,  B. Rana,  
 A. E. Rask,  A. Rettig,  R. M. Richard,  F. Rob,  E. Rossomme,  S. Roy,  
 T. Scheele,  M. Scheurer,  M. Schneider,  P. E. Schneider,  Tim K. Schramm,  
 N. Sergueev,  S. M. Sharada,  Hengyuan Shen,  W. Skomorowski,  D. W. Small,  
 C. J. Stein,  Alistair J. Sterling,  Yingli Su,  Yu-Chuan Su,  
 E. J. Sundstrom,  J. Talbot,  J. A. Tan,  Zhen Tao,  Hung-Hsuan Teh,  
 J. Thirman,  C. Titeca,  N. Tkachenko,  Hung-Yi Tsai,  T. Tsuchimochi,  
 N. M. Tubman,  C. Utku,  S. P. Veccham,  O. Vydrov,  Z. Wang,  Rahel Weiss,  
 J. Wenzel,  Jonathan Wong,  J. Witte,  H. Wu,  Yanze Wu,  A. Yamada,  
 Chou-Hsun Yang,  Kun Yao,  S. Yeganeh,  S. R. Yost,  Qi Yu,  A. Zech,  
 F. Zeller,  Chongxiao Zhao,  T. Zhao,  Igor Ying Zhang,  Xing Zhang,  
 Yu Zhang,  D. Zuev,  A. Aspuru-Guzik,  A. T. Bell,  N. A. Besley,  
 K. B. Bravaya,  B. R. Brooks,  D. Casanova,  Jeng-Da Chai,  Hsing-Ta Chen,  
 S. Coriani,  C. J. Cramer,  A. E. DePrince, III,  R. A. DiStasio Jr.,  
 A. Dreuw,  B. D. Dunietz,  T. R. Furlani,  W. A. Goddard III,  S. Grimme,  
 S. Hammes-Schiffer,  T. Head-Gordon,  W. J. Hehre,  Chao-Ping Hsu,  
 T.-C. Jagau,  Yousung Jung,  A. Klamt,  Jing Kong,  D. S. Lambrecht,  
 Xiangyuan Li,  WanZhen Liang,  N. J. Mayhall,  C. W. McCurdy,  J. B. Neaton,  
 T. Neudecker,  C. Ochsenfeld,  J. A. Parkhill,  R. Peverati,  
 V. A. Rassolov,  Haisheng Ren,  Yihan Shao,  L. V. Slipchenko,  
 R. P. Steele,  J. E. Subotnik,  A. J. W. Thom,  A. Tkatchenko,  
 D. G. Truhlar,  T. Van Voorhis,  Fan Wang,  T. A. Wesolowski,  K. B. Whaley,  
 H. L. Woodcock III,  P. M. Zimmerman,  S. Faraji,  P. M. W. Gill,  
 M. Head-Gordon,  J. M. Herbert,  A. I. Krylov

 Contributors to earlier versions of Q-Chem not listed above: 
 R. D. Adamson,  B. Austin,  R. Baer,  J. Baker,  G. J. O. Beran,  
 K. Brandhorst,  S. T. Brown,  E. F. C. Byrd,  Arup K. Chakraborty,  
 G. K. L. Chan,  Chun-Min Chang,  Yunqing Chen,  C.-L. Cheng,  
 Siu Hung Chien,  D. M. Chipman,  D. L. Crittenden,  H. Dachsel,  
 R. J. Doerksen,  A. D. Dutoi,  R. G. Edgar,  J. Fosso-Tande,  
 L. Fusti-Molnar,  D. Ghosh,  A. Ghysels,  A. Golubeva-Zadorozhnaya,  
 J. Gonthier,  M. S. Gordon,  S. R. Gwaltney,  G. Hawkins,  J. E. Herr,  
 A. Heyden,  S. Hirata,  E. G. Hohenstein,  G. Kedziora,  F. J. Keil,  
 C. Kelley,  Jihan Kim,  R. A. King,  R. Z. Khaliullin,  P. P. Korambath,  
 W. Kurlancheek,  A. Laurent,  A. M. Lee,  M. S. Lee,  S. V. Levchenko,  
 Ching Yeh Lin,  D. Liotard,  E. Livshits,  R. C. Lochan,  I. Lotan,  
 L. A. Martinez-Martinez,  P. E. Maslen,  N. Nair,  D. P. O'Neill,  
 D. Neuhauser,  E. Neuscamman,  C. M. Oana,  R. Olivares-Amaya,  R. Olson,  
 T. M. Perrine,  B. Peters,  P. A. Pieniazek,  A. Prociuk,  Y. M. Rhee,  
 J. Ritchie,  M. A. Rohrdanz,  E. Rosta,  N. J. Russ,  H. F. Schaefer III,  
 M. W. Schmidt,  N. E. Schultz,  S. Sharma,  N. Shenvi,  C. D. Sherrill,  
 A. C. Simmonett,  A. Sodt,  T. Stein,  D. Stuck,  K. S. Thanthiriwatte,  
 V. Vanovschi,  L. Vogt,  Tao Wang,  A. Warshel,  M. A. Watson,  
 C. F. Williams,  Q. Wu,  X. Xu,  Jun Yang,  W. Zhang,  Yan Zhao

   Please cite Q-Chem as follows:
  "Software for the frontiers of quantum chemistry:
   An overview of developments in the Q-Chem 5 package"
   J. Chem. Phys. 155, 084801 (2021)
   https://doi.org/10.1063/5.0055522 (open access)

 Q-Chem 6.3.0 for Intel X86 EM64T Linux

 Parts of Q-Chem use Armadillo 12.8.2 (Cortisol Injector).
 http://arma.sourceforge.net/

 Q-Chem begins on Wed Dec 10 21:56:21 2025  

 Host: 
0

     Scratch files written to /scratch1/hulinfen/qchem352527//
 May2125 |scratch|qcdevops|jenkins|workspace|build_RNUM -1
 Processing $rem in /apps/generic/qchem/6.3.0/openmp/config/preferences:
 Processing $rem in /home1/hulinfen/.qchemrc:

 Checking the input file for inconsistencies... 	...done.

--------------------------------------------------------------
User input:
--------------------------------------------------------------
$molecule
0 1
N     0.4411281105   -0.0795350202   -0.4409533717
N    -0.4411261453   -0.0795489616    0.4409384894
C     1.7684112287    0.0885701431    0.0379475934
C    -1.7684071220    0.0885963617   -0.0379537889
C     2.0867342681    0.4704679573    1.3464454072
C    -2.0867268888    0.4705543325   -1.3464347579
C     2.7802296875   -0.1107218689   -0.9031147831
C    -2.7802265735   -0.1107190847    0.9031025574
C     3.4189574280    0.6409846119    1.7018186124
C    -3.4189481850    0.6411079948   -1.7017972867
C     4.1129442708    0.0561600737   -0.5382717657
C    -4.1129393004    0.0562003876    0.5382701447
C     4.4336508721    0.4321032884    0.7645727223
C    -4.4336427608    0.4322042893   -0.7645575696
H     1.2887883733    0.6369218491    2.0618017379
H    -1.2887798372    0.6370246654   -2.0617860146
H     2.5034567385   -0.3956986645   -1.9139334853
H    -2.5034548998   -0.3957424494    1.9139084430
H     3.6709358597    0.9417938543    2.7148094689
H    -3.6709247962    0.9419638942   -2.7147746814
H     4.8986735998   -0.1047136861   -1.2704363916
H    -4.8986693439   -0.1046905169    1.2704302066
H     5.4725363710    0.5716980009    1.0496007502
H    -5.4725266145    0.5718290476   -1.0495769019
$end

$rem
JOB_TYPE        = SP
METHOD          = wB97X-D
BASIS           = 6-31+G*
GUI             = 2

CIS_N_ROOTS     = 10
CIS_SINGLETS    = TRUE
CIS_TRIPLETS    = FALSE

SCF_ALGORITHM   = diis
MAX_SCF_CYCLES  = 200
SCF_CONVERGENCE = 8
THRESH          = 12
$end

--------------------------------------------------------------
 ----------------------------------------------------------------
             Standard Nuclear Orientation (Angstroms)
    I     Atom           X                Y                Z
 ----------------------------------------------------------------
    1      N      -0.3837401593     0.4917035102     0.2995392533
    2      N       0.3837398163    -0.4916989068     0.2995415838
    3      C      -1.7597216319     0.1791417821     0.1314139739
    4      C       1.7597215080    -0.1791389065     0.1314163765
    5      C      -2.2360596630    -1.0804516062    -0.2505135100
    6      C       2.2360619715     1.0804532287    -0.2505119248
    7      C      -2.6485362095     1.2371488295     0.3307178377
    8      C       2.6485337683    -1.2371479516     0.3307199711
    9      C      -3.6017995382    -1.2698117378    -0.4210477473
   10      C       3.6018021465     1.2698097190    -0.4210480045
   11      C      -4.0159248249     1.0384504992     0.1638181116
   12      C       4.0159226259    -1.0384533357     0.1638182822
   13      C      -4.4939354069    -0.2152401059    -0.2121546734
   14      C       4.4939356589     0.2152358359    -0.2121560494
   15      H      -1.5318333180    -1.8882354014    -0.4169761909
   16      H       1.5318372321     1.8882386954    -0.4169734686
   17      H      -2.2499289312     2.2064046025     0.6157177893
   18      H       2.2499235473    -2.2064024016     0.6157201800
   19      H      -3.9760654840    -2.2442627435    -0.7218800013
   20      H       3.9760707359     2.2442594527    -0.7218808925
   21      H      -4.7059660296     1.8614181675     0.3247011037
   22      H       4.7059618366    -1.8614229074     0.3246999544
   23      H      -5.5599265495    -0.3707491610    -0.3517632616
   24      H       5.5599269339     0.3707419690    -0.3517669321
 ----------------------------------------------------------------
 Molecular Point Group                 C1    NOp =  1
 Largest Abelian Subgroup              C1    NOp =  1
 Nuclear Repulsion Energy =         751.69424795 hartrees
 There are       48 alpha and       48 beta electrons
 Requested basis set is 6-31+G(d)
 There are 90 shells and 286 basis functions

 Total QAlloc Memory Limit   8000 MB
 Mega-Array Size       188 MB
 MEM_STATIC part       192 MB

 A cutoff of  1.0D-12 yielded   3230 shell pairs
 There are     34862 function pairs
 Smallest overlap matrix eigenvalue = 2.58E-06

 Scale SEOQF with 1.000000e-02/1.000000e-01/1.000000e-01

 Standard Electronic Orientation quadrupole field applied
 Nucleus-field energy     =     0.0000000097 hartrees
 Guess from superposition of atomic densities
 Warning:  Energy on first SCF cycle will be non-variational
 SAD guess density has 96.000000 electrons

 -----------------------------------------------------------------------
  General SCF calculation program by
  Eric Jon Sundstrom, Paul Horn, Yuezhi Mao, Dmitri Zuev, Alec White,
  David Stuck, Shaama M.S., Shane Yost, Joonho Lee, David Small,
  Daniel Levine, Susi Lehtola, Hugh Burton, Evgeny Epifanovsky,
  Bang C. Huynh
 -----------------------------------------------------------------------
 Exchange:     0.2220 Hartree-Fock + 1.0000 wB97X-D + LR-HF
 Correlation:  1.0000 wB97X-D
 Using SG-2 standard quadrature grid
 Dispersion:   Grimme D
 using 8 threads for integral computing
 -------------------------------------------------------
 OpenMP Integral computing Module                
 Release: version 1.0, May 2013, Q-Chem Inc. Pittsburgh 
 -------------------------------------------------------
 A restricted SCF calculation will be
 performed using DIIS
 SCF converges when DIIS error is below 1.0e-08
 User-specified cutoff of 10e-12
 used for neglect of 2-electron integrals.
 A cutoff of 10e-12
 used for neglect of overlap integrals.
 Incremental Fock algorithm is on at the start.
 ---------------------------------------
  Cycle       Energy         DIIS error
 ---------------------------------------
    1    -576.8098728248      4.31e-02  
    2    -572.4883735137      2.52e-03  
    3    -572.5365820778      1.69e-03  
    4    -572.5640236194      4.40e-04  
    5    -572.5659850284      1.75e-04  
    6    -572.5663713526      3.36e-05  
    7    -572.5663910715      1.60e-05  
    8    -572.5663951579      4.44e-06  
    9    -572.5663958578      1.05e-06  
   10    -572.5663958875      4.84e-07  
   11    -572.5663958915      1.24e-07  
   12    -572.5663958921      2.75e-08  
   13    -572.5663958921      1.57e-08  
   14    -572.5663958921      4.23e-09  Convergence criterion met
 ---------------------------------------
 SCF time:   CPU 177.54s  wall 23.00s 
 SCF   energy =  -572.56639589
 Total energy =  -572.56639589
 Integrated density by DFT XC:
   Number of electrons = 96
   Numerical integral  =    95.996840256854
   Relative error      =     0.0032913991 %

 CIS/TDDFT Memory Preview
 --------------------------
 	O*V dim = 22848
 	Mem per subspace vector = 0.2 Mb
 	Max subspace size fits in available memory
 Direct TDDFT/TDA calculation will be performed
 Exchange:     0.2220 Hartree-Fock + 1.0000 wB97X-D + LR-HF
 Correlation:  1.0000 wB97X-D
 Using SG-2 standard quadrature grid
 Dispersion:   Grimme D
 Singlet excitation energies requested
 CIS energy converged when residual is below 10e- 6
 ---------------------------------------------------
 Iter    Rts Conv    Rts Left    Ttl Dev     Max Dev
 ---------------------------------------------------
   1         0          10      0.006348    0.001104
   2         0          10      0.002358    0.000384
   3         0          10      0.001183    0.000189
   4         0          10      0.001340    0.000486
   5         0          10      0.000482    0.000157
   6         1           9      0.000223    0.000068
   7         4           6      0.000153    0.000056
   8         4           6      0.000065    0.000026
   9         6           4      0.000027    0.000009
  10         7           3      0.000014    0.000004
  11         8           2      0.000008    0.000002
  12        10           0      0.000005    0.000001    Roots Converged
 ---------------------------------------------------
 
 ---------------------------------------------------
         TDDFT/TDA Excitation Energies              
 ---------------------------------------------------

 Excited state   1: excitation energy (eV) =       2.7136
 Total energy for state   1:                  -572.46667471 au
    Multiplicity: Singlet
    Trans. Mom.:  0.7111 X   0.0209 Y   0.0000 Z
    Strength   :     0.0336419550
    D(   47) --> V(    1) amplitude = -0.6676
    D(   48) --> V(    1) amplitude =  0.6931

 Excited state   2: excitation energy (eV) =       4.3616
 Total energy for state   2:                  -572.40611156 au
    Multiplicity: Singlet
    Trans. Mom.:  2.9915 X   0.1249 Y   0.0000 Z
    Strength   :     0.9579032927
    D(   47) --> V(    1) amplitude =  0.6936
    D(   48) --> V(    1) amplitude =  0.6794

 Excited state   3: excitation energy (eV) =       4.7625
 Total energy for state   3:                  -572.39137882 au
    Multiplicity: Singlet
    Trans. Mom.:  0.3037 X  -0.4431 Y  -0.0000 Z
    Strength   :     0.0336730603
    D(   44) --> V(    3) amplitude =  0.2270
    D(   45) --> V(    1) amplitude =  0.8559
    D(   48) --> V(    2) amplitude = -0.3534

 Excited state   4: excitation energy (eV) =       4.7675
 Total energy for state   4:                  -572.39119415 au
    Multiplicity: Singlet
    Trans. Mom.:  0.0000 X  -0.0000 Y   0.1126 Z
    Strength   :     0.0014819679
    D(   44) --> V(    2) amplitude = -0.2197
    D(   46) --> V(    1) amplitude =  0.8713
    D(   48) --> V(    3) amplitude =  0.3467

 Excited state   5: excitation energy (eV) =       5.5094
 Total energy for state   5:                  -572.36393028 au
    Multiplicity: Singlet
    Trans. Mom.:  0.0000 X  -0.0000 Y  -0.2494 Z
    Strength   :     0.0083947766
    D(   44) --> V(    1) amplitude =  0.9009

 Excited state   6: excitation energy (eV) =       5.9222
 Total energy for state   6:                  -572.34875988 au
    Multiplicity: Singlet
    Trans. Mom.:  0.5864 X  -0.7660 Y  -0.0000 Z
    Strength   :     0.1350171884
    D(   45) --> V(    1) amplitude =  0.3270
    D(   47) --> V(    2) amplitude = -0.3804
    D(   48) --> V(    2) amplitude =  0.8043

 Excited state   7: excitation energy (eV) =       5.9431
 Total energy for state   7:                  -572.34799189 au
    Multiplicity: Singlet
    Trans. Mom.: -0.0000 X   0.0000 Y  -0.1875 Z
    Strength   :     0.0051213790
    D(   46) --> V(    1) amplitude = -0.3267
    D(   47) --> V(    3) amplitude = -0.3206
    D(   48) --> V(    3) amplitude =  0.7741

 Excited state   8: excitation energy (eV) =       6.1073
 Total energy for state   8:                  -572.34195582 au
    Multiplicity: Singlet
    Trans. Mom.:  0.0000 X  -0.0000 Y   0.0708 Z
    Strength   :     0.0007493465
    D(   47) --> V(    3) amplitude =  0.2240
    D(   47) --> V(    4) amplitude = -0.4382
    D(   48) --> V(    4) amplitude =  0.7604

 Excited state   9: excitation energy (eV) =       6.3786
 Total energy for state   9:                  -572.33198825 au
    Multiplicity: Singlet
    Trans. Mom.: -0.9667 X   0.5604 Y  -0.0000 Z
    Strength   :     0.1951097673
    D(   44) --> V(    3) amplitude =  0.2887
    D(   45) --> V(    1) amplitude = -0.3107
    D(   46) --> V(    4) amplitude =  0.3150
    D(   47) --> V(    2) amplitude = -0.7657

 Excited state  10: excitation energy (eV) =       6.4198
 Total energy for state  10:                  -572.33047158 au
    Multiplicity: Singlet
    Trans. Mom.:  0.0000 X   0.0000 Y  -0.0635 Z
    Strength   :     0.0006349147
    D(   44) --> V(    2) amplitude = -0.2572
    D(   45) --> V(    4) amplitude =  0.3107
    D(   46) --> V(    1) amplitude = -0.2639
    D(   47) --> V(    3) amplitude =  0.7391
 
 ---------------------------------------------------
  SETman timing summary (seconds)
  CPU time               687.56s
  System time              0.00s
  Wall time               87.33s
 
 --------------------------------------------------------------
 
                    Orbital Energies (a.u.)
 --------------------------------------------------------------
 
 Alpha MOs
 -- Occupied --
-14.5088 -14.5083 -10.3384 -10.3384 -10.3165 -10.3165 -10.3147 -10.3147
-10.3146 -10.3146 -10.3140 -10.3140 -10.3127 -10.3127  -1.1480  -0.9817
 -0.9637  -0.9032  -0.8585  -0.8577  -0.8478  -0.7812  -0.7197  -0.7144
 -0.6991  -0.6645  -0.6289  -0.6024  -0.5778  -0.5667  -0.5491  -0.5357
 -0.5328  -0.5198  -0.5172  -0.5106  -0.4946  -0.4703  -0.4518  -0.4492
 -0.4450  -0.4329  -0.4317  -0.3556  -0.3394  -0.3392  -0.3274  -0.2999
 -- Virtual --
 -0.0256   0.0504   0.0521   0.0637   0.0683   0.0728   0.0806   0.0868
  0.0898   0.1000   0.1020   0.1029   0.1080   0.1104   0.1234   0.1253
  0.1303   0.1325   0.1387   0.1456   0.1541   0.1560   0.1649   0.1767
  0.1811   0.1886   0.1953   0.1960   0.1960   0.1976   0.2033   0.2105
  0.2191   0.2221   0.2222   0.2237   0.2324   0.2395   0.2417   0.2469
  0.2546   0.2600   0.2629   0.2690   0.2747   0.2755   0.2795   0.2849
  0.2881   0.2936   0.2970   0.2987   0.3050   0.3096   0.3120   0.3133
  0.3142   0.3211   0.3283   0.3360   0.3389   0.3410   0.3494   0.3589
  0.3591   0.3723   0.3724   0.3763   0.3817   0.3846   0.3956   0.4145
  0.4147   0.4195   0.4347   0.4366   0.4416   0.4431   0.4656   0.4693
  0.5018   0.5068   0.5489   0.5819   0.6562   0.6627   0.6971   0.7004
  0.7212   0.7316   0.7508   0.7581   0.7684   0.7805   0.8029   0.8031
  0.8146   0.8155   0.8224   0.8234   0.8324   0.8365   0.8465   0.8471
  0.8676   0.8727   0.8788   0.8842   0.9119   0.9144   0.9401   0.9417
  0.9796   0.9881   1.0113   1.0178   1.0330   1.0358   1.0381   1.0658
  1.0678   1.0699   1.0804   1.0956   1.1106   1.1218   1.1221   1.1334
  1.1616   1.1734   1.1756   1.1923   1.2005   1.2260   1.2387   1.2422
  1.2499   1.2874   1.2940   1.3038   1.3120   1.3228   1.3515   1.3582
  1.3691   1.3911   1.4216   1.4628   1.4713   1.4795   1.4882   1.5093
  1.5104   1.5143   1.5450   1.5561   1.5644   1.5649   1.5679   1.5811
  1.5826   1.6073   1.6325   1.7290   1.8083   1.8423   1.8898   1.9307
  1.9381   1.9476   1.9575   1.9841   2.0158   2.0314   2.0455   2.0502
  2.0805   2.0887   2.0918   2.0920   2.1500   2.1994   2.2055   2.2277
  2.2306   2.2337   2.2443   2.2512   2.2576   2.2966   2.2985   2.3279
  2.3522   2.3788   2.3867   2.3880   2.4470   2.4872   2.5178   2.5837
  2.6203   2.6478   2.6486   2.6866   2.7047   2.7118   2.7329   2.7402
  2.7758   2.8156   2.8359   2.8388   2.8476   2.8645   2.8683   2.8841
  2.9582   3.0357   3.0488   3.1372   3.2392   3.3576   3.5103   3.5270
  4.2501   4.3358   4.3395   4.3461   4.3576   4.4280   4.4391   4.4863
  4.4863   4.4921   4.5497   4.5897   4.8129   4.8367
 --------------------------------------------------------------
 
          Ground-State Mulliken Net Atomic Charges

     Atom                 Charge (a.u.)
  ----------------------------------------
      1 N                    -0.034951
      2 N                    -0.034951
      3 C                    -0.914989
      4 C                    -0.914992
      5 C                     0.479633
      6 C                     0.479635
      7 C                     0.317986
      8 C                     0.317986
      9 C                    -0.513459
     10 C                    -0.513459
     11 C                    -0.351610
     12 C                    -0.351610
     13 C                    -0.081728
     14 C                    -0.081727
     15 H                     0.238235
     16 H                     0.238235
     17 H                     0.223735
     18 H                     0.223735
     19 H                     0.213082
     20 H                     0.213082
     21 H                     0.213238
     22 H                     0.213238
     23 H                     0.210829
     24 H                     0.210829
  ----------------------------------------
  Sum of atomic charges =     0.000000

 -----------------------------------------------------------------
                    Cartesian Multipole Moments
 -----------------------------------------------------------------
    Charge (ESU x 10^10)
                 0.0000
    Dipole Moment (Debye)
         X       0.0000      Y      -0.0000      Z      -0.4968
       Tot       0.4968
    Quadrupole Moments (Debye-Ang)
        XX     -62.7054     XY      -0.4052     YY     -73.7991
        XZ      -0.0000     YZ       0.0000     ZZ     -86.6725
    Octopole Moments (Debye-Ang^2)
       XXX       0.0000    XXY      -0.0000    XYY       0.0000
       YYY      -0.0000    XXZ      -8.6947    XYZ     -14.2532
       YYZ      -1.3911    XZZ       0.0000    YZZ       0.0000
       ZZZ       2.0401
    Hexadecapole Moments (Debye-Ang^3)
      XXXX   -4107.0740   XXXY     -13.5578   XXYY    -790.6991
      XYYY      -2.8154   YYYY    -539.1570   XXXZ      -0.0008
      XXYZ       0.0000   XYYZ      -0.0000   YYYZ       0.0000
      XXZZ    -897.7640   XYZZ       2.5565   YYZZ    -126.5957
      XZZZ      -0.0000   YZZZ       0.0000   ZZZZ    -150.5329
 -----------------------------------------------------------------
 Total job time:  110.98s(wall), 868.47s(cpu) 
 Wed Dec 10 21:58:12 2025

        *************************************************************
        *                                                           *
        *  Thank you very much for using Q-Chem.  Have a nice day.  *
        *                                                           *
        *************************************************************


