
Running Job 1 of 1 30_gas.in
qchem 30_gas.in_924586.0 /scratch1/hulinfen/qchem924586/ 1
/apps/generic/qchem/6.3.0/openmp/exe/qcprog.exe_s 30_gas.in_924586.0 /scratch1/hulinfen/qchem924586/
                  Welcome to Q-Chem
     A Quantum Leap Into The Future Of Chemistry


 Q-Chem 6.3, Q-Chem, Inc., Pleasanton, CA (2025)

 License issued to: University of Southern California (site)

 E. Epifanovsky,  A. T. B. Gilbert,  Xintian Feng,  Joonho Lee,  Yuezhi Mao,  
 N. Mardirossian,  P. Pokhilko,  A. White,  M. Wormit,  M. P. Coons,  
 A. L. Dempwolff,  Zhengting Gan,  D. Hait,  P. R. Horn,  L. D. Jacobson,  
 I. Kaliman,  J. Kussmann,  A. W. Lange,  Ka Un Lao,  D. S. Levine,  Jie Liu,  
 S. C. McKenzie,  A. F. Morrison,  K. D. Nanda,  F. Plasser,  D. R. Rehn,  
 M. L. Vidal,  Zhi-Qiang You,  Ying Zhu,  Huseyin Aksu,  B. Alam,  
 B. Albrecht,  A. Aldossary,  E. Alguire,  J. H. Andersen,  
 J. E. Arias-Martinez,  V. Athavale,  F. Ballesteros,  D. Barton,  K. Begam,  
 A. Behn,  N. Bellonzi,  Y. A. Bernard,  E. J. Berquist,  H. Burton,  
 S. Camps,  A. Carreras,  K. Carter-Fenk,  Mathew Chow,  Romit Chakraborty,  
 Chandrima Chakravarty,  Junhan Chen,  A. D. Chien,  K. D. Closser,  
 V. Cofer-Shabica,  L. Cunha,  S. Dasgupta,  Jia Deng,  Joseph Dickinson,  
 M. de Wergifosse,  M. Diedenhofen,  L. B. Dittmer,  Hainam Do,  Wenjie Dou,  
 S. Ehlert,  Po-Tung Fang,  S. Fatehi,  Qingguo Feng,  Jonathan Fetherolf,  
 T. Friedhoff,  Thomas Froitzheim,  Sarai Folkestad,  B. Ganoe,  J. Gayvert,  
 Qinghui Ge,  G. Gidofalvi,  M. Gimferrer,  G. Giudetti,  M. Goldey,  
 Montgomery Gray,  J. Gomes,  C. Gonzalez-Espinoza,  S. Gulania,  A. Gunina,  
 J. A. Gyamfi,  M. W. D. Hanson-Heine,  P. H. P. Harbach,  A. W. Hauser,  
 M. F. Herbst,  M. Hernandez Vera,  M. Hodecker,  Z. C. Holden,  S. Houck,  
 Xunkun Huang,  Kerwin Hui,  B. C. Huynh,  K. Ikeda,  M. Ivanov,  
 Nayanthara K. Jayadev,  Hyunjun Ji,  Zuxin Jin,  Hanjie Jiang,  
 Subrata Jana,  B. Kaduk,  S. Kaehler,  R. Kang,  Richard Kang,  
 K. Khistyaev,  Jaehoon Kim,  Yongbin Kim,  P. Klunzinger,  Z. Koczor-Benda,  
 Joong Hoon Koh,  D. Kosenkov,  Saikiran Kotaru,  L. Koulias,  T. Kowalczyk,  
 C. M. Krauter,  K. Kue,  A. Kunitsa,  T. Kus,  A. Landau,  C. W. Lander,  
 K. V. Lawler,  D. Lefrancois,  S. Lehtola,  Rain Li,  Shaozhi Li,  
 Tao E. Li,  Yi-Pei Li,  Jiashu Liang,  M. Liebenthal,  Hung-Hsuan Lin,  
 You-Sheng Lin,  Fenglai Liu,  Kuan-Yu Liu,  Xiao Liu,  M. Loipersberger,  
 A. Luenser,  C. Malbon,  Aniket Mandal,  Manisha,  A. Manjanath,  
 P. Manohar,  E. Mansoor,  S. F. Manzer,  Shan-Ping Mao,  A. V. Marenich,  
 T. Markovich,  S. Mason,  F. Matz,  S. A. Maurer,  Samuel May,  
 Alexandra McIsaac,  P. F. McLaughlin,  M. F. S. J. Menger,  J.-M. Mewes,  
 S. A. Mewes,  R. E. Moorby,  P. Morgante,  Mohammad Mostafanejad,  
 Madhubani Mukherjee,  J. W. Mullinax,  Quyen Nguyen,  Avik Kumar Ojha,  
 K. J. Oosterbaan,  Eno Paenurk,  Xiaoliang Pan,  G. Paran,  V. Parravicini,  
 R. L. Patterson,  Alexander C. Paul,  Suranjan K. Paul,  F. Pavosevic,  
 Zheng Pei,  P. Pokhilko,  S. Prager,  E. I. Proynov,  E. Ramos,  B. Rana,  
 A. E. Rask,  A. Rettig,  R. M. Richard,  F. Rob,  E. Rossomme,  S. Roy,  
 T. Scheele,  M. Scheurer,  M. Schneider,  P. E. Schneider,  Tim K. Schramm,  
 N. Sergueev,  S. M. Sharada,  Hengyuan Shen,  W. Skomorowski,  D. W. Small,  
 C. J. Stein,  Alistair J. Sterling,  Yingli Su,  Yu-Chuan Su,  
 E. J. Sundstrom,  J. Talbot,  J. A. Tan,  Zhen Tao,  Hung-Hsuan Teh,  
 J. Thirman,  C. Titeca,  N. Tkachenko,  Hung-Yi Tsai,  T. Tsuchimochi,  
 N. M. Tubman,  C. Utku,  S. P. Veccham,  O. Vydrov,  Z. Wang,  Rahel Weiss,  
 J. Wenzel,  Jonathan Wong,  J. Witte,  H. Wu,  Yanze Wu,  A. Yamada,  
 Chou-Hsun Yang,  Kun Yao,  S. Yeganeh,  S. R. Yost,  Qi Yu,  A. Zech,  
 F. Zeller,  Chongxiao Zhao,  T. Zhao,  Igor Ying Zhang,  Xing Zhang,  
 Yu Zhang,  D. Zuev,  A. Aspuru-Guzik,  A. T. Bell,  N. A. Besley,  
 K. B. Bravaya,  B. R. Brooks,  D. Casanova,  Jeng-Da Chai,  Hsing-Ta Chen,  
 S. Coriani,  C. J. Cramer,  A. E. DePrince, III,  R. A. DiStasio Jr.,  
 A. Dreuw,  B. D. Dunietz,  T. R. Furlani,  W. A. Goddard III,  S. Grimme,  
 S. Hammes-Schiffer,  T. Head-Gordon,  W. J. Hehre,  Chao-Ping Hsu,  
 T.-C. Jagau,  Yousung Jung,  A. Klamt,  Jing Kong,  D. S. Lambrecht,  
 Xiangyuan Li,  WanZhen Liang,  N. J. Mayhall,  C. W. McCurdy,  J. B. Neaton,  
 T. Neudecker,  C. Ochsenfeld,  J. A. Parkhill,  R. Peverati,  
 V. A. Rassolov,  Haisheng Ren,  Yihan Shao,  L. V. Slipchenko,  
 R. P. Steele,  J. E. Subotnik,  A. J. W. Thom,  A. Tkatchenko,  
 D. G. Truhlar,  T. Van Voorhis,  Fan Wang,  T. A. Wesolowski,  K. B. Whaley,  
 H. L. Woodcock III,  P. M. Zimmerman,  S. Faraji,  P. M. W. Gill,  
 M. Head-Gordon,  J. M. Herbert,  A. I. Krylov

 Contributors to earlier versions of Q-Chem not listed above: 
 R. D. Adamson,  B. Austin,  R. Baer,  J. Baker,  G. J. O. Beran,  
 K. Brandhorst,  S. T. Brown,  E. F. C. Byrd,  Arup K. Chakraborty,  
 G. K. L. Chan,  Chun-Min Chang,  Yunqing Chen,  C.-L. Cheng,  
 Siu Hung Chien,  D. M. Chipman,  D. L. Crittenden,  H. Dachsel,  
 R. J. Doerksen,  A. D. Dutoi,  R. G. Edgar,  J. Fosso-Tande,  
 L. Fusti-Molnar,  D. Ghosh,  A. Ghysels,  A. Golubeva-Zadorozhnaya,  
 J. Gonthier,  M. S. Gordon,  S. R. Gwaltney,  G. Hawkins,  J. E. Herr,  
 A. Heyden,  S. Hirata,  E. G. Hohenstein,  G. Kedziora,  F. J. Keil,  
 C. Kelley,  Jihan Kim,  R. A. King,  R. Z. Khaliullin,  P. P. Korambath,  
 W. Kurlancheek,  A. Laurent,  A. M. Lee,  M. S. Lee,  S. V. Levchenko,  
 Ching Yeh Lin,  D. Liotard,  E. Livshits,  R. C. Lochan,  I. Lotan,  
 L. A. Martinez-Martinez,  P. E. Maslen,  N. Nair,  D. P. O'Neill,  
 D. Neuhauser,  E. Neuscamman,  C. M. Oana,  R. Olivares-Amaya,  R. Olson,  
 T. M. Perrine,  B. Peters,  P. A. Pieniazek,  A. Prociuk,  Y. M. Rhee,  
 J. Ritchie,  M. A. Rohrdanz,  E. Rosta,  N. J. Russ,  H. F. Schaefer III,  
 M. W. Schmidt,  N. E. Schultz,  S. Sharma,  N. Shenvi,  C. D. Sherrill,  
 A. C. Simmonett,  A. Sodt,  T. Stein,  D. Stuck,  K. S. Thanthiriwatte,  
 V. Vanovschi,  L. Vogt,  Tao Wang,  A. Warshel,  M. A. Watson,  
 C. F. Williams,  Q. Wu,  X. Xu,  Jun Yang,  W. Zhang,  Yan Zhao

   Please cite Q-Chem as follows:
  "Software for the frontiers of quantum chemistry:
   An overview of developments in the Q-Chem 5 package"
   J. Chem. Phys. 155, 084801 (2021)
   https://doi.org/10.1063/5.0055522 (open access)

 Q-Chem 6.3.0 for Intel X86 EM64T Linux

 Parts of Q-Chem use Armadillo 12.8.2 (Cortisol Injector).
 http://arma.sourceforge.net/

 Q-Chem begins on Wed Dec 10 21:42:57 2025  

 Host: 
0

     Scratch files written to /scratch1/hulinfen/qchem924586//
 May2125 |scratch|qcdevops|jenkins|workspace|build_RNUM -1
 Processing $rem in /apps/generic/qchem/6.3.0/openmp/config/preferences:
 Processing $rem in /home1/hulinfen/.qchemrc:

 Checking the input file for inconsistencies... 	...done.

--------------------------------------------------------------
User input:
--------------------------------------------------------------
$molecule
0 1
N     0.6094584972   -1.8964665053   -0.1271372379
N    -0.6094858339   -1.8964614752    0.1270684944
C     1.4287760992   -0.7346349193    0.0200318577
C    -1.4287851182   -0.7346115275   -0.0200596052
C     1.2685467506    0.1683486492    1.0763742118
C    -1.2685311484    0.1684162718   -1.0763605553
C     2.5231168241   -0.6202635298   -0.8404771910
C    -2.5231346055   -0.6202629299    0.8404412966
C     2.1892284558    1.1970261058    1.2425594245
C    -2.1891968985    1.1971132806   -1.2425119434
C     3.4220162230    0.4293790952   -0.6846532612
C    -3.4220189317    0.4293977902    0.6846515115
C     3.2579599830    1.3409236486    0.3577417833
C    -3.2579378297    1.3409857777   -0.3577015798
H     0.4398979247    0.0564023095    1.7682014931
H    -0.4398753971    0.0564899439   -1.7681826448
H     2.6567479289   -1.3602555728   -1.6242845012
H    -2.6567849514   -1.3602871910    1.6242149301
H     2.0686562812    1.8922600133    2.0682504600
H    -2.0686037331    1.8923831423   -2.0681696682
H     4.2617451394    0.5266549076   -1.3664763693
H    -4.2617557800    0.5266539318    1.3664676561
H     3.9707464390    2.1487709136    0.4939079074
H    -3.9707119778    2.1488483693   -0.4938411342
$end

$rem
JOB_TYPE        = SP
METHOD          = wB97X-D
BASIS           = 6-31+G*
GUI             = 2

CIS_N_ROOTS     = 10
CIS_SINGLETS    = TRUE
CIS_TRIPLETS    = FALSE

SCF_ALGORITHM   = diis
MAX_SCF_CYCLES  = 200
SCF_CONVERGENCE = 8
THRESH          = 12
$end

--------------------------------------------------------------
 ----------------------------------------------------------------
             Standard Nuclear Orientation (Angstroms)
    I     Atom           X                Y                Z
 ----------------------------------------------------------------
    1      N       0.6087937422    -1.9105089644    -0.1303150491
    2      N      -0.6087972267    -1.9105092496     0.1302959043
    3      C       1.4288657289    -0.7486699867     0.0125304496
    4      C      -1.4288667786    -0.7486666932    -0.0125365153
    5      C       1.2741861758     0.1543251670     1.0696898162
    6      C      -1.2741748989     0.1543495214    -1.0696762302
    7      C       2.5186663147    -0.6343014183    -0.8537216924
    8      C      -2.5186777541    -0.6343152747     0.8537047877
    9      C       2.1957217664     1.1830109395     1.2310198303
   10      C      -2.1957086102     1.1830382146    -1.2309971357
   11      C       3.4183652793     0.4153492487    -0.7026385461
   12      C      -3.4183760105     0.4153374037     0.7026305727
   13      C       3.2597854988     1.3269051935     0.3405937215
   14      C      -3.2597837784     1.3269140003    -0.3405817003
   15      H       0.4491869369     0.0423814466     1.7658655886
   16      H      -0.4491671564     0.0424205743    -1.7658441670
   17      H       2.6481797455    -1.3743019563    -1.6382118902
   18      H      -2.6482003494    -1.3743310412     1.6381791297
   19      H       2.0794876037     1.8782539347     2.0573250516
   20      H      -2.0794629151     1.8782989890    -2.0572858047
   21      H       4.2544971552     0.5126226380    -1.3888683628
   22      H      -4.2545172025     0.5125959683     1.3888511386
   23      H       3.9732724149     2.1347589868     0.4730007381
   24      H      -3.9732694405     2.1347700638    -0.4729815561
 ----------------------------------------------------------------
 Molecular Point Group                 C1    NOp =  1
 Largest Abelian Subgroup              C1    NOp =  1
 Nuclear Repulsion Energy =         788.50085083 hartrees
 There are       48 alpha and       48 beta electrons
 Requested basis set is 6-31+G(d)
 There are 90 shells and 286 basis functions

 Total QAlloc Memory Limit   8000 MB
 Mega-Array Size       188 MB
 MEM_STATIC part       192 MB

 A cutoff of  1.0D-12 yielded   3490 shell pairs
 There are     37321 function pairs
 Smallest overlap matrix eigenvalue = 2.53E-06

 Scale SEOQF with 1.000000e-01/1.000000e-01/1.000000e-01

 Standard Electronic Orientation quadrupole field applied
 Nucleus-field energy     =     0.0000000204 hartrees
 Guess from superposition of atomic densities
 Warning:  Energy on first SCF cycle will be non-variational
 SAD guess density has 96.000000 electrons

 -----------------------------------------------------------------------
  General SCF calculation program by
  Eric Jon Sundstrom, Paul Horn, Yuezhi Mao, Dmitri Zuev, Alec White,
  David Stuck, Shaama M.S., Shane Yost, Joonho Lee, David Small,
  Daniel Levine, Susi Lehtola, Hugh Burton, Evgeny Epifanovsky,
  Bang C. Huynh
 -----------------------------------------------------------------------
 Exchange:     0.2220 Hartree-Fock + 1.0000 wB97X-D + LR-HF
 Correlation:  1.0000 wB97X-D
 Using SG-2 standard quadrature grid
 Dispersion:   Grimme D
 using 8 threads for integral computing
 -------------------------------------------------------
 OpenMP Integral computing Module                
 Release: version 1.0, May 2013, Q-Chem Inc. Pittsburgh 
 -------------------------------------------------------
 A restricted SCF calculation will be
 performed using DIIS
 SCF converges when DIIS error is below 1.0e-08
 User-specified cutoff of 10e-12
 used for neglect of 2-electron integrals.
 A cutoff of 10e-12
 used for neglect of overlap integrals.
 Incremental Fock algorithm is on at the start.
 ---------------------------------------
  Cycle       Energy         DIIS error
 ---------------------------------------
    1    -576.7834797342      4.29e-02  
    2    -572.4597821780      2.68e-03  
    3    -572.5029792519      1.99e-03  
    4    -572.5410486748      4.84e-04  
    5    -572.5435489408      1.76e-04  
    6    -572.5439307507      3.98e-05  
    7    -572.5439521252      1.75e-05  
    8    -572.5439568971      4.39e-06  
    9    -572.5439577026      1.73e-06  
   10    -572.5439577654      5.70e-07  
   11    -572.5439577762      1.83e-07  
   12    -572.5439577771      8.56e-08  
   13    -572.5439577773      2.63e-08  
   14    -572.5439577773      7.64e-09  Convergence criterion met
 ---------------------------------------
 SCF time:   CPU 169.54s  wall 22.00s 
 SCF   energy =  -572.54395778
 Total energy =  -572.54395778
 Integrated density by DFT XC:
   Number of electrons = 96
   Numerical integral  =    95.996376176694
   Relative error      =     0.0037748159 %

 CIS/TDDFT Memory Preview
 --------------------------
 	O*V dim = 22848
 	Mem per subspace vector = 0.2 Mb
 	Max subspace size fits in available memory
 Direct TDDFT/TDA calculation will be performed
 Exchange:     0.2220 Hartree-Fock + 1.0000 wB97X-D + LR-HF
 Correlation:  1.0000 wB97X-D
 Using SG-2 standard quadrature grid
 Dispersion:   Grimme D
 Singlet excitation energies requested
 CIS energy converged when residual is below 10e- 6
 ---------------------------------------------------
 Iter    Rts Conv    Rts Left    Ttl Dev     Max Dev
 ---------------------------------------------------
   1         0          10      0.005794    0.001088
   2         0          10      0.002277    0.000305
   3         0          10      0.001161    0.000154
   4         0          10      0.000967    0.000379
   5         0          10      0.000452    0.000158
   6         1           9      0.000234    0.000104
   7         2           8      0.000117    0.000052
   8         5           5      0.000056    0.000025
   9         8           2      0.000024    0.000010
  10         8           2      0.000011    0.000004
  11         8           2      0.000006    0.000002
  12        10           0      0.000004    0.000001    Roots Converged
 ---------------------------------------------------
 
 ---------------------------------------------------
         TDDFT/TDA Excitation Energies              
 ---------------------------------------------------

 Excited state   1: excitation energy (eV) =       2.3906
 Total energy for state   1:                  -572.45610420 au
    Multiplicity: Singlet
    Trans. Mom.:  0.8761 X  -0.0000 Y   0.2687 Z
    Strength   :     0.0491817405
    D(   44) --> V(    1) amplitude = -0.3269
    D(   48) --> V(    1) amplitude =  0.9039

 Excited state   2: excitation energy (eV) =       4.5194
 Total energy for state   2:                  -572.37787264 au
    Multiplicity: Singlet
    Trans. Mom.:  1.1562 X   0.0000 Y   0.2261 Z
    Strength   :     0.1536733286
    D(   44) --> V(    1) amplitude =  0.3682
    D(   47) --> V(    1) amplitude =  0.8025
    D(   48) --> V(    1) amplitude =  0.2921
    D(   48) --> V(    2) amplitude =  0.2585

 Excited state   3: excitation energy (eV) =       4.6968
 Total energy for state   3:                  -572.37135335 au
    Multiplicity: Singlet
    Trans. Mom.: -0.0000 X   0.4808 Y  -0.0000 Z
    Strength   :     0.0265952955
    D(   45) --> V(    1) amplitude =  0.2355
    D(   46) --> V(    1) amplitude =  0.8771

 Excited state   4: excitation energy (eV) =       4.7656
 Total energy for state   4:                  -572.36882514 au
    Multiplicity: Singlet
    Trans. Mom.:  0.9879 X  -0.0000 Y   0.0591 Z
    Strength   :     0.1143494062
    D(   44) --> V(    1) amplitude =  0.7236
    D(   47) --> V(    1) amplitude = -0.2219
    D(   48) --> V(    2) amplitude = -0.5285

 Excited state   5: excitation energy (eV) =       4.8414
 Total energy for state   5:                  -572.36603874 au
    Multiplicity: Singlet
    Trans. Mom.: -0.0000 X   0.1954 Y  -0.0000 Z
    Strength   :     0.0045287758
    D(   45) --> V(    1) amplitude =  0.7555
    D(   48) --> V(    3) amplitude = -0.4823

 Excited state   6: excitation energy (eV) =       5.3395
 Total energy for state   6:                  -572.34773656 au
    Multiplicity: Singlet
    Trans. Mom.:  1.1414 X   0.0000 Y  -0.6591 Z
    Strength   :     0.2272612190
    D(   44) --> V(    1) amplitude =  0.3596
    D(   47) --> V(    1) amplitude = -0.4684
    D(   48) --> V(    2) amplitude =  0.7398

 Excited state   7: excitation energy (eV) =       5.5304
 Total energy for state   7:                  -572.34071784 au
    Multiplicity: Singlet
    Trans. Mom.:  0.0000 X   0.8124 Y   0.0000 Z
    Strength   :     0.0894149972
    D(   45) --> V(    1) amplitude =  0.4266
    D(   48) --> V(    3) amplitude =  0.7980

 Excited state   8: excitation energy (eV) =       5.6769
 Total energy for state   8:                  -572.33533589 au
    Multiplicity: Singlet
    Trans. Mom.:  0.0000 X  -0.2851 Y  -0.0000 Z
    Strength   :     0.0113054626
    D(   45) --> V(    1) amplitude =  0.2240
    D(   46) --> V(    1) amplitude = -0.2273
    D(   48) --> V(    4) amplitude =  0.8646

 Excited state   9: excitation energy (eV) =       5.9102
 Total energy for state   9:                  -572.32676366 au
    Multiplicity: Singlet
    Trans. Mom.: -0.4674 X   0.0000 Y  -0.1486 Z
    Strength   :     0.0348289815
    D(   48) --> V(    5) amplitude = -0.3208
    D(   48) --> V(    8) amplitude = -0.6942
    D(   48) --> V(    9) amplitude = -0.4243

 Excited state  10: excitation energy (eV) =       6.1951
 Total energy for state  10:                  -572.31629180 au
    Multiplicity: Singlet
    Trans. Mom.: -0.0102 X  -0.0000 Y   0.0141 Z
    Strength   :     0.0000460809
    D(   48) --> V(    5) amplitude =  0.7888
    D(   48) --> V(    8) amplitude = -0.3497
    D(   48) --> V(   10) amplitude =  0.2826
 
 ---------------------------------------------------
  SETman timing summary (seconds)
  CPU time               661.87s
  System time              0.00s
  Wall time               84.22s
 
 --------------------------------------------------------------
 
                    Orbital Energies (a.u.)
 --------------------------------------------------------------
 
 Alpha MOs
 -- Occupied --
-14.5183 -14.5178 -10.3483 -10.3483 -10.3200 -10.3200 -10.3188 -10.3188
-10.3185 -10.3185 -10.3172 -10.3172 -10.3171 -10.3171  -1.1509  -0.9825
 -0.9706  -0.9012  -0.8627  -0.8623  -0.8616  -0.7830  -0.7274  -0.7169
 -0.7164  -0.6710  -0.6468  -0.6017  -0.5884  -0.5654  -0.5648  -0.5447
 -0.5372  -0.5230  -0.5229  -0.5020  -0.4928  -0.4634  -0.4616  -0.4550
 -0.4549  -0.4343  -0.4328  -0.3538  -0.3518  -0.3410  -0.3382  -0.2861
 -- Virtual --
 -0.0227   0.0401   0.0476   0.0576   0.0624   0.0730   0.0786   0.0815
  0.0846   0.0904   0.0957   0.1016   0.1046   0.1151   0.1175   0.1236
  0.1283   0.1309   0.1445   0.1472   0.1603   0.1622   0.1693   0.1791
  0.1822   0.1860   0.1864   0.1951   0.1970   0.1979   0.2085   0.2086
  0.2138   0.2203   0.2250   0.2279   0.2415   0.2421   0.2446   0.2463
  0.2487   0.2555   0.2577   0.2675   0.2697   0.2747   0.2797   0.2821
  0.2854   0.2892   0.2923   0.2981   0.2995   0.3073   0.3083   0.3168
  0.3171   0.3221   0.3228   0.3308   0.3375   0.3542   0.3574   0.3596
  0.3660   0.3698   0.3727   0.3764   0.3873   0.3887   0.3931   0.4072
  0.4157   0.4222   0.4297   0.4313   0.4369   0.4520   0.4610   0.4719
  0.4756   0.4825   0.4892   0.5805   0.6413   0.6573   0.6839   0.6927
  0.6975   0.7312   0.7393   0.7580   0.7609   0.7814   0.7904   0.8024
  0.8111   0.8128   0.8211   0.8281   0.8308   0.8338   0.8528   0.8577
  0.8659   0.8833   0.8873   0.8912   0.8944   0.9478   0.9583   0.9733
  0.9832   0.9913   1.0188   1.0212   1.0306   1.0337   1.0378   1.0487
  1.0633   1.0711   1.0954   1.1067   1.1126   1.1155   1.1274   1.1492
  1.1677   1.1761   1.1830   1.1842   1.1982   1.2060   1.2117   1.2246
  1.2500   1.2675   1.2715   1.2995   1.3064   1.3204   1.3216   1.3476
  1.3666   1.3697   1.3899   1.3978   1.4695   1.4828   1.4835   1.5086
  1.5246   1.5273   1.5421   1.5459   1.5644   1.5660   1.5794   1.5826
  1.5842   1.5950   1.6888   1.7539   1.7664   1.8287   1.8804   1.9163
  1.9229   1.9305   1.9310   1.9738   1.9980   2.0355   2.0396   2.0646
  2.0753   2.0766   2.0940   2.1145   2.1850   2.1928   2.1961   2.2156
  2.2251   2.2370   2.2372   2.2482   2.2592   2.2629   2.3188   2.3233
  2.3409   2.3772   2.3831   2.3887   2.4424   2.4445   2.4892   2.5250
  2.5887   2.6424   2.6852   2.7054   2.7091   2.7131   2.7159   2.7575
  2.7581   2.8150   2.8217   2.8403   2.8422   2.8654   2.8768   2.9113
  2.9137   2.9885   3.0283   3.1552   3.1798   3.3612   3.4958   3.5185
  4.2350   4.3398   4.3398   4.3597   4.3653   4.4246   4.4397   4.4639
  4.4873   4.5200   4.5245   4.5807   4.8033   4.8304
 --------------------------------------------------------------
 
          Ground-State Mulliken Net Atomic Charges

     Atom                 Charge (a.u.)
  ----------------------------------------
      1 N                     0.003283
      2 N                     0.003289
      3 C                    -0.398274
      4 C                    -0.398279
      5 C                     0.287350
      6 C                     0.287369
      7 C                    -0.080640
      8 C                    -0.080640
      9 C                    -0.434702
     10 C                    -0.434714
     11 C                    -0.271218
     12 C                    -0.271219
     13 C                    -0.199222
     14 C                    -0.199219
     15 H                     0.226372
     16 H                     0.226373
     17 H                     0.226545
     18 H                     0.226545
     19 H                     0.214182
     20 H                     0.214182
     21 H                     0.214370
     22 H                     0.214370
     23 H                     0.211948
     24 H                     0.211948
  ----------------------------------------
  Sum of atomic charges =     0.000000

 -----------------------------------------------------------------
                    Cartesian Multipole Moments
 -----------------------------------------------------------------
    Charge (ESU x 10^10)
                -0.0000
    Dipole Moment (Debye)
         X      -0.0000      Y       3.4190      Z       0.0000
       Tot       3.4190
    Quadrupole Moments (Debye-Ang)
        XX     -72.3018     XY       0.0001     YY     -87.6104
        XZ      -5.0892     YZ      -0.0001     ZZ     -75.9655
    Octopole Moments (Debye-Ang^2)
       XXX      -0.0007    XXY      26.9589    XYY      -0.0003
       YYY      27.9702    XXZ       0.0002    XYZ      13.5550
       YYZ       0.0001    XZZ       0.0005    YZZ       1.1160
       ZZZ       0.0001
    Hexadecapole Moments (Debye-Ang^3)
      XXXX   -2650.5307   XXXY       0.0016   XXYY    -541.3298
      XYYY      -0.0004   YYYY    -761.0480   XXXZ    -121.8091
      XXYZ      -0.0001   XYYZ      14.9306   YYYZ      -0.0010
      XXZZ    -520.8689   XYZZ       0.0006   YYZZ    -172.4546
      XZZZ     -18.8036   YZZZ       0.0004   ZZZZ    -431.1042
 -----------------------------------------------------------------
 Total job time:  107.03s(wall), 836.08s(cpu) 
 Wed Dec 10 21:44:44 2025

        *************************************************************
        *                                                           *
        *  Thank you very much for using Q-Chem.  Have a nice day.  *
        *                                                           *
        *************************************************************


