
Running Job 1 of 1 60_gas.in
qchem 60_gas.in_3319823.0 /scratch1/hulinfen/qchem3319823/ 1
/apps/generic/qchem/6.3.0/openmp/exe/qcprog.exe_s 60_gas.in_3319823.0 /scratch1/hulinfen/qchem3319823/
                  Welcome to Q-Chem
     A Quantum Leap Into The Future Of Chemistry


 Q-Chem 6.3, Q-Chem, Inc., Pleasanton, CA (2025)

 License issued to: University of Southern California (site)

 E. Epifanovsky,  A. T. B. Gilbert,  Xintian Feng,  Joonho Lee,  Yuezhi Mao,  
 N. Mardirossian,  P. Pokhilko,  A. White,  M. Wormit,  M. P. Coons,  
 A. L. Dempwolff,  Zhengting Gan,  D. Hait,  P. R. Horn,  L. D. Jacobson,  
 I. Kaliman,  J. Kussmann,  A. W. Lange,  Ka Un Lao,  D. S. Levine,  Jie Liu,  
 S. C. McKenzie,  A. F. Morrison,  K. D. Nanda,  F. Plasser,  D. R. Rehn,  
 M. L. Vidal,  Zhi-Qiang You,  Ying Zhu,  Huseyin Aksu,  B. Alam,  
 B. Albrecht,  A. Aldossary,  E. Alguire,  J. H. Andersen,  
 J. E. Arias-Martinez,  V. Athavale,  F. Ballesteros,  D. Barton,  K. Begam,  
 A. Behn,  N. Bellonzi,  Y. A. Bernard,  E. J. Berquist,  H. Burton,  
 S. Camps,  A. Carreras,  K. Carter-Fenk,  Mathew Chow,  Romit Chakraborty,  
 Chandrima Chakravarty,  Junhan Chen,  A. D. Chien,  K. D. Closser,  
 V. Cofer-Shabica,  L. Cunha,  S. Dasgupta,  Jia Deng,  Joseph Dickinson,  
 M. de Wergifosse,  M. Diedenhofen,  L. B. Dittmer,  Hainam Do,  Wenjie Dou,  
 S. Ehlert,  Po-Tung Fang,  S. Fatehi,  Qingguo Feng,  Jonathan Fetherolf,  
 T. Friedhoff,  Thomas Froitzheim,  Sarai Folkestad,  B. Ganoe,  J. Gayvert,  
 Qinghui Ge,  G. Gidofalvi,  M. Gimferrer,  G. Giudetti,  M. Goldey,  
 Montgomery Gray,  J. Gomes,  C. Gonzalez-Espinoza,  S. Gulania,  A. Gunina,  
 J. A. Gyamfi,  M. W. D. Hanson-Heine,  P. H. P. Harbach,  A. W. Hauser,  
 M. F. Herbst,  M. Hernandez Vera,  M. Hodecker,  Z. C. Holden,  S. Houck,  
 Xunkun Huang,  Kerwin Hui,  B. C. Huynh,  K. Ikeda,  M. Ivanov,  
 Nayanthara K. Jayadev,  Hyunjun Ji,  Zuxin Jin,  Hanjie Jiang,  
 Subrata Jana,  B. Kaduk,  S. Kaehler,  R. Kang,  Richard Kang,  
 K. Khistyaev,  Jaehoon Kim,  Yongbin Kim,  P. Klunzinger,  Z. Koczor-Benda,  
 Joong Hoon Koh,  D. Kosenkov,  Saikiran Kotaru,  L. Koulias,  T. Kowalczyk,  
 C. M. Krauter,  K. Kue,  A. Kunitsa,  T. Kus,  A. Landau,  C. W. Lander,  
 K. V. Lawler,  D. Lefrancois,  S. Lehtola,  Rain Li,  Shaozhi Li,  
 Tao E. Li,  Yi-Pei Li,  Jiashu Liang,  M. Liebenthal,  Hung-Hsuan Lin,  
 You-Sheng Lin,  Fenglai Liu,  Kuan-Yu Liu,  Xiao Liu,  M. Loipersberger,  
 A. Luenser,  C. Malbon,  Aniket Mandal,  Manisha,  A. Manjanath,  
 P. Manohar,  E. Mansoor,  S. F. Manzer,  Shan-Ping Mao,  A. V. Marenich,  
 T. Markovich,  S. Mason,  F. Matz,  S. A. Maurer,  Samuel May,  
 Alexandra McIsaac,  P. F. McLaughlin,  M. F. S. J. Menger,  J.-M. Mewes,  
 S. A. Mewes,  R. E. Moorby,  P. Morgante,  Mohammad Mostafanejad,  
 Madhubani Mukherjee,  J. W. Mullinax,  Quyen Nguyen,  Avik Kumar Ojha,  
 K. J. Oosterbaan,  Eno Paenurk,  Xiaoliang Pan,  G. Paran,  V. Parravicini,  
 R. L. Patterson,  Alexander C. Paul,  Suranjan K. Paul,  F. Pavosevic,  
 Zheng Pei,  P. Pokhilko,  S. Prager,  E. I. Proynov,  E. Ramos,  B. Rana,  
 A. E. Rask,  A. Rettig,  R. M. Richard,  F. Rob,  E. Rossomme,  S. Roy,  
 T. Scheele,  M. Scheurer,  M. Schneider,  P. E. Schneider,  Tim K. Schramm,  
 N. Sergueev,  S. M. Sharada,  Hengyuan Shen,  W. Skomorowski,  D. W. Small,  
 C. J. Stein,  Alistair J. Sterling,  Yingli Su,  Yu-Chuan Su,  
 E. J. Sundstrom,  J. Talbot,  J. A. Tan,  Zhen Tao,  Hung-Hsuan Teh,  
 J. Thirman,  C. Titeca,  N. Tkachenko,  Hung-Yi Tsai,  T. Tsuchimochi,  
 N. M. Tubman,  C. Utku,  S. P. Veccham,  O. Vydrov,  Z. Wang,  Rahel Weiss,  
 J. Wenzel,  Jonathan Wong,  J. Witte,  H. Wu,  Yanze Wu,  A. Yamada,  
 Chou-Hsun Yang,  Kun Yao,  S. Yeganeh,  S. R. Yost,  Qi Yu,  A. Zech,  
 F. Zeller,  Chongxiao Zhao,  T. Zhao,  Igor Ying Zhang,  Xing Zhang,  
 Yu Zhang,  D. Zuev,  A. Aspuru-Guzik,  A. T. Bell,  N. A. Besley,  
 K. B. Bravaya,  B. R. Brooks,  D. Casanova,  Jeng-Da Chai,  Hsing-Ta Chen,  
 S. Coriani,  C. J. Cramer,  A. E. DePrince, III,  R. A. DiStasio Jr.,  
 A. Dreuw,  B. D. Dunietz,  T. R. Furlani,  W. A. Goddard III,  S. Grimme,  
 S. Hammes-Schiffer,  T. Head-Gordon,  W. J. Hehre,  Chao-Ping Hsu,  
 T.-C. Jagau,  Yousung Jung,  A. Klamt,  Jing Kong,  D. S. Lambrecht,  
 Xiangyuan Li,  WanZhen Liang,  N. J. Mayhall,  C. W. McCurdy,  J. B. Neaton,  
 T. Neudecker,  C. Ochsenfeld,  J. A. Parkhill,  R. Peverati,  
 V. A. Rassolov,  Haisheng Ren,  Yihan Shao,  L. V. Slipchenko,  
 R. P. Steele,  J. E. Subotnik,  A. J. W. Thom,  A. Tkatchenko,  
 D. G. Truhlar,  T. Van Voorhis,  Fan Wang,  T. A. Wesolowski,  K. B. Whaley,  
 H. L. Woodcock III,  P. M. Zimmerman,  S. Faraji,  P. M. W. Gill,  
 M. Head-Gordon,  J. M. Herbert,  A. I. Krylov

 Contributors to earlier versions of Q-Chem not listed above: 
 R. D. Adamson,  B. Austin,  R. Baer,  J. Baker,  G. J. O. Beran,  
 K. Brandhorst,  S. T. Brown,  E. F. C. Byrd,  Arup K. Chakraborty,  
 G. K. L. Chan,  Chun-Min Chang,  Yunqing Chen,  C.-L. Cheng,  
 Siu Hung Chien,  D. M. Chipman,  D. L. Crittenden,  H. Dachsel,  
 R. J. Doerksen,  A. D. Dutoi,  R. G. Edgar,  J. Fosso-Tande,  
 L. Fusti-Molnar,  D. Ghosh,  A. Ghysels,  A. Golubeva-Zadorozhnaya,  
 J. Gonthier,  M. S. Gordon,  S. R. Gwaltney,  G. Hawkins,  J. E. Herr,  
 A. Heyden,  S. Hirata,  E. G. Hohenstein,  G. Kedziora,  F. J. Keil,  
 C. Kelley,  Jihan Kim,  R. A. King,  R. Z. Khaliullin,  P. P. Korambath,  
 W. Kurlancheek,  A. Laurent,  A. M. Lee,  M. S. Lee,  S. V. Levchenko,  
 Ching Yeh Lin,  D. Liotard,  E. Livshits,  R. C. Lochan,  I. Lotan,  
 L. A. Martinez-Martinez,  P. E. Maslen,  N. Nair,  D. P. O'Neill,  
 D. Neuhauser,  E. Neuscamman,  C. M. Oana,  R. Olivares-Amaya,  R. Olson,  
 T. M. Perrine,  B. Peters,  P. A. Pieniazek,  A. Prociuk,  Y. M. Rhee,  
 J. Ritchie,  M. A. Rohrdanz,  E. Rosta,  N. J. Russ,  H. F. Schaefer III,  
 M. W. Schmidt,  N. E. Schultz,  S. Sharma,  N. Shenvi,  C. D. Sherrill,  
 A. C. Simmonett,  A. Sodt,  T. Stein,  D. Stuck,  K. S. Thanthiriwatte,  
 V. Vanovschi,  L. Vogt,  Tao Wang,  A. Warshel,  M. A. Watson,  
 C. F. Williams,  Q. Wu,  X. Xu,  Jun Yang,  W. Zhang,  Yan Zhao

   Please cite Q-Chem as follows:
  "Software for the frontiers of quantum chemistry:
   An overview of developments in the Q-Chem 5 package"
   J. Chem. Phys. 155, 084801 (2021)
   https://doi.org/10.1063/5.0055522 (open access)

 Q-Chem 6.3.0 for Intel X86 EM64T Linux

 Parts of Q-Chem use Armadillo 12.8.2 (Cortisol Injector).
 http://arma.sourceforge.net/

 Q-Chem begins on Wed Dec 10 21:44:59 2025  

 Host: 
0

     Scratch files written to /scratch1/hulinfen/qchem3319823//
 May2125 |scratch|qcdevops|jenkins|workspace|build_RNUM -1
 Processing $rem in /apps/generic/qchem/6.3.0/openmp/config/preferences:
 Processing $rem in /home1/hulinfen/.qchemrc:

 Checking the input file for inconsistencies... 	...done.

--------------------------------------------------------------
User input:
--------------------------------------------------------------
$molecule
0 1
N     0.5690940912   -1.6404046061   -0.2651551912
N    -0.5691186286   -1.6404038076    0.2651088349
C     1.5096924888   -0.6098229815   -0.0469223106
C    -1.5097005908   -0.6098001029    0.0469048487
C     1.4192329822    0.2809996770    1.0336985628
C    -1.4192121638    0.2810711622   -1.0336735645
C     2.6448596628   -0.5970511002   -0.8688533951
C    -2.6448817256   -0.5970526619    0.8688167981
C     2.4563423305    1.1730558454    1.2750594794
C    -2.4563065199    1.1731505809   -1.2750116805
C     3.6636267061    0.3172566604   -0.6323368549
C    -3.6636347551    0.3172771005    0.6323236472
C     3.5746280332    1.2047542417    0.4407364375
C    -3.5746067510    1.2048231326   -0.4407069641
H     0.5556550868    0.2512910819    1.6906451338
H    -0.5556227630    0.2513844111   -1.6906058839
H     2.7117784913   -1.3144074366   -1.6814293714
H    -2.7118247630   -1.3144474868    1.6813568391
H     2.3926434363    1.8472467503    2.1243196132
H    -2.3925832674    1.8473813584   -2.1242382805
H     4.5384341865    0.3280599659   -1.2759249771
H    -4.5384539188    0.3280601905    1.2758962303
H     4.3790362374    1.9071507643    0.6370539241
H    -4.3790035453    1.9072377600   -0.6370065404
$end

$rem
JOB_TYPE        = SP
METHOD          = wB97X-D
BASIS           = 6-31+G*
GUI             = 2

CIS_N_ROOTS     = 10
CIS_SINGLETS    = TRUE
CIS_TRIPLETS    = FALSE

SCF_ALGORITHM   = diis
MAX_SCF_CYCLES  = 200
SCF_CONVERGENCE = 8
THRESH          = 12
$end

--------------------------------------------------------------
 ----------------------------------------------------------------
             Standard Nuclear Orientation (Angstroms)
    I     Atom           X                Y                Z
 ----------------------------------------------------------------
    1      N       0.5629511758    -1.6852459307    -0.2779876926
    2      N      -0.5629558232    -1.6852555618     0.2779273749
    3      C       1.5082451962    -0.6546586178    -0.0811160943
    4      C      -1.5082471457    -0.6546575455     0.0810938213
    5      C       1.4422850469     0.2361585758     1.0012809629
    6      C      -1.4422695584     0.2362191845    -1.0012532041
    7      C       2.6244993843    -0.6418750264    -0.9285542979
    8      C      -2.6245159027    -0.6419218146     0.9285133289
    9      C       2.4845901976     1.1282210129     1.2190874851
   10      C      -2.4845716581     1.1282923344    -1.2190290222
   11      C       3.6483570294     0.2724388946    -0.7151752457
   12      C      -3.6483717723     0.2724017874     0.7151657974
   13      C       3.5836863654     1.1599310550     0.3596430561
   14      C      -3.5836832081     1.1599532403    -0.3596022918
   15      H       0.5938126849     0.2064409309     1.6776238432
   16      H      -0.5937849565     0.2065414832    -1.6775823718
   17      H       2.6729964651    -1.3592272613    -1.7424411232
   18      H      -2.6730279852    -1.3593207410     1.7423581431
   19      H       2.4401436358     1.8024076753     2.0695759022
   20      H      -2.4401093970     1.8025273544    -2.0694782315
   21      H       4.5083588727     0.2832512697    -1.3784176089
   22      H      -4.5083857986     0.2831758077     1.3783929899
   23      H       4.3923309287     1.8623323991     0.5376888692
   24      H      -4.3923257648     1.8623630462    -0.5376239625
 ----------------------------------------------------------------
 Molecular Point Group                 C1    NOp =  1
 Largest Abelian Subgroup              C1    NOp =  1
 Nuclear Repulsion Energy =         777.93169402 hartrees
 There are       48 alpha and       48 beta electrons
 Requested basis set is 6-31+G(d)
 There are 90 shells and 286 basis functions

 Total QAlloc Memory Limit   8000 MB
 Mega-Array Size       188 MB
 MEM_STATIC part       192 MB

 A cutoff of  1.0D-12 yielded   3426 shell pairs
 There are     36614 function pairs
 Smallest overlap matrix eigenvalue = 2.51E-06

 Scale SEOQF with 1.000000e-01/1.000000e-01/1.000000e-01

 Standard Electronic Orientation quadrupole field applied
 Nucleus-field energy     =     0.0000000219 hartrees
 Guess from superposition of atomic densities
 Warning:  Energy on first SCF cycle will be non-variational
 SAD guess density has 96.000000 electrons

 -----------------------------------------------------------------------
  General SCF calculation program by
  Eric Jon Sundstrom, Paul Horn, Yuezhi Mao, Dmitri Zuev, Alec White,
  David Stuck, Shaama M.S., Shane Yost, Joonho Lee, David Small,
  Daniel Levine, Susi Lehtola, Hugh Burton, Evgeny Epifanovsky,
  Bang C. Huynh
 -----------------------------------------------------------------------
 Exchange:     0.2220 Hartree-Fock + 1.0000 wB97X-D + LR-HF
 Correlation:  1.0000 wB97X-D
 Using SG-2 standard quadrature grid
 Dispersion:   Grimme D
 using 8 threads for integral computing
 -------------------------------------------------------
 OpenMP Integral computing Module                
 Release: version 1.0, May 2013, Q-Chem Inc. Pittsburgh 
 -------------------------------------------------------
 A restricted SCF calculation will be
 performed using DIIS
 SCF converges when DIIS error is below 1.0e-08
 User-specified cutoff of 10e-12
 used for neglect of 2-electron integrals.
 A cutoff of 10e-12
 used for neglect of overlap integrals.
 Incremental Fock algorithm is on at the start.
 ---------------------------------------
  Cycle       Energy         DIIS error
 ---------------------------------------
    1    -576.7801231468      4.29e-02  
    2    -572.4370980302      2.67e-03  
    3    -572.4788079584      2.02e-03  
    4    -572.5176394130      5.46e-04  
    5    -572.5208491856      1.87e-04  
    6    -572.5213034992      3.45e-05  
    7    -572.5213293840      1.47e-05  
    8    -572.5213353659      6.54e-06  
    9    -572.5213370754      2.33e-06  
   10    -572.5213372188      9.39e-07  
   11    -572.5213372463      2.13e-07  
   12    -572.5213372484      9.32e-08  
   13    -572.5213372486      4.40e-08  
   14    -572.5213372487      1.57e-08  
   15    -572.5213372487      7.38e-09  Convergence criterion met
 ---------------------------------------
 SCF time:   CPU 171.33s  wall 21.00s 
 SCF   energy =  -572.52133725
 Total energy =  -572.52133725
 Integrated density by DFT XC:
   Number of electrons = 96
   Numerical integral  =    95.994990845455
   Relative error      =     0.0052178693 %

 CIS/TDDFT Memory Preview
 --------------------------
 	O*V dim = 22848
 	Mem per subspace vector = 0.2 Mb
 	Max subspace size fits in available memory
 Direct TDDFT/TDA calculation will be performed
 Exchange:     0.2220 Hartree-Fock + 1.0000 wB97X-D + LR-HF
 Correlation:  1.0000 wB97X-D
 Using SG-2 standard quadrature grid
 Dispersion:   Grimme D
 Singlet excitation energies requested
 CIS energy converged when residual is below 10e- 6
 ---------------------------------------------------
 Iter    Rts Conv    Rts Left    Ttl Dev     Max Dev
 ---------------------------------------------------
   1         0          10      0.006199    0.000898
   2         0          10      0.002148    0.000307
   3         0          10      0.001109    0.000211
   4         0          10      0.000896    0.000379
   5         0          10      0.000419    0.000141
   6         1           9      0.000197    0.000078
   7         3           7      0.000091    0.000040
   8         6           4      0.000038    0.000020
   9         7           3      0.000015    0.000008
  10         8           2      0.000007    0.000003
  11         9           1      0.000005    0.000001
  12        10           0      0.000004    0.000001    Roots Converged
 ---------------------------------------------------
 
 ---------------------------------------------------
         TDDFT/TDA Excitation Energies              
 ---------------------------------------------------

 Excited state   1: excitation energy (eV) =       1.3224
 Total energy for state   1:                  -572.47273837 au
    Multiplicity: Singlet
    Trans. Mom.:  1.2014 X  -0.0000 Y   0.2188 Z
    Strength   :     0.0483164995
    D(   44) --> V(    1) amplitude = -0.3037
    D(   48) --> V(    1) amplitude =  0.9271

 Excited state   2: excitation energy (eV) =       4.0989
 Total energy for state   2:                  -572.37070636 au
    Multiplicity: Singlet
    Trans. Mom.:  1.1269 X   0.0000 Y   0.2626 Z
    Strength   :     0.1344509496
    D(   44) --> V(    1) amplitude =  0.3518
    D(   47) --> V(    1) amplitude =  0.8451
    D(   48) --> V(    2) amplitude =  0.2742

 Excited state   3: excitation energy (eV) =       4.2290
 Total energy for state   3:                  -572.36592304 au
    Multiplicity: Singlet
    Trans. Mom.:  0.0001 X   0.4868 Y   0.0000 Z
    Strength   :     0.0245533351
    D(   43) --> V(    1) amplitude =  0.2738
    D(   45) --> V(    1) amplitude =  0.6625
    D(   46) --> V(    1) amplitude =  0.5909

 Excited state   4: excitation energy (eV) =       4.2932
 Total energy for state   4:                  -572.36356619 au
    Multiplicity: Singlet
    Trans. Mom.:  1.4786 X  -0.0000 Y   0.0679 Z
    Strength   :     0.2304381883
    D(   44) --> V(    1) amplitude =  0.7889
    D(   47) --> V(    1) amplitude = -0.2359
    D(   48) --> V(    1) amplitude =  0.2272
    D(   48) --> V(    2) amplitude = -0.4562

 Excited state   5: excitation energy (eV) =       4.3137
 Total energy for state   5:                  -572.36281084 au
    Multiplicity: Singlet
    Trans. Mom.:  0.0001 X  -0.1217 Y   0.0000 Z
    Strength   :     0.0015640813
    D(   45) --> V(    1) amplitude = -0.5568
    D(   46) --> V(    1) amplitude =  0.6736
    D(   48) --> V(    3) amplitude =  0.4117

 Excited state   6: excitation energy (eV) =       4.8558
 Total energy for state   6:                  -572.34289056 au
    Multiplicity: Singlet
    Trans. Mom.:  1.3368 X   0.0000 Y  -0.6887 Z
    Strength   :     0.2690335731
    D(   44) --> V(    1) amplitude =  0.3100
    D(   47) --> V(    1) amplitude = -0.4252
    D(   48) --> V(    2) amplitude =  0.8040

 Excited state   7: excitation energy (eV) =       5.0949
 Total energy for state   7:                  -572.33410357 au
    Multiplicity: Singlet
    Trans. Mom.:  0.0000 X   0.4983 Y   0.0000 Z
    Strength   :     0.0309917746
    D(   45) --> V(    1) amplitude =  0.2570
    D(   46) --> V(    1) amplitude = -0.3345
    D(   48) --> V(    3) amplitude =  0.8489

 Excited state   8: excitation energy (eV) =       5.3347
 Total energy for state   8:                  -572.32528992 au
    Multiplicity: Singlet
    Trans. Mom.:  0.0000 X  -0.6142 Y  -0.0000 Z
    Strength   :     0.0493062263
    D(   43) --> V(    1) amplitude = -0.3383
    D(   48) --> V(    4) amplitude =  0.8603

 Excited state   9: excitation energy (eV) =       5.4344
 Total energy for state   9:                  -572.32162656 au
    Multiplicity: Singlet
    Trans. Mom.: -1.0318 X   0.0000 Y  -0.1622 Z
    Strength   :     0.1452499727
    D(   48) --> V(    5) amplitude =  0.5010
    D(   48) --> V(    8) amplitude = -0.7760

 Excited state  10: excitation energy (eV) =       5.7284
 Total energy for state  10:                  -572.31082137 au
    Multiplicity: Singlet
    Trans. Mom.:  0.1986 X  -0.0000 Y   0.1303 Z
    Strength   :     0.0079194635
    D(   48) --> V(    5) amplitude =  0.7178
    D(   48) --> V(    8) amplitude =  0.3968
    D(   48) --> V(   10) amplitude = -0.3899
    D(   48) --> V(   14) amplitude =  0.2450
 
 ---------------------------------------------------
  SETman timing summary (seconds)
  CPU time               612.09s
  System time              0.00s
  Wall time               80.20s
 
 --------------------------------------------------------------
 
                    Orbital Energies (a.u.)
 --------------------------------------------------------------
 
 Alpha MOs
 -- Occupied --
-14.5161 -14.5156 -10.3523 -10.3523 -10.3196 -10.3195 -10.3188 -10.3188
-10.3182 -10.3182 -10.3172 -10.3172 -10.3170 -10.3170  -1.1470  -0.9843
 -0.9689  -0.9055  -0.8626  -0.8616  -0.8594  -0.7862  -0.7274  -0.7154
 -0.7153  -0.6704  -0.6462  -0.6032  -0.5873  -0.5652  -0.5648  -0.5430
 -0.5377  -0.5238  -0.5219  -0.5015  -0.4956  -0.4650  -0.4597  -0.4557
 -0.4525  -0.4364  -0.4284  -0.3557  -0.3516  -0.3441  -0.3403  -0.2662
 -- Virtual --
 -0.0457   0.0411   0.0517   0.0612   0.0631   0.0731   0.0787   0.0817
  0.0854   0.0888   0.0961   0.1012   0.1043   0.1149   0.1180   0.1248
  0.1248   0.1303   0.1432   0.1487   0.1594   0.1612   0.1625   0.1810
  0.1842   0.1854   0.1874   0.1953   0.1963   0.1981   0.2101   0.2114
  0.2125   0.2197   0.2204   0.2257   0.2408   0.2449   0.2450   0.2509
  0.2510   0.2569   0.2592   0.2679   0.2708   0.2714   0.2801   0.2840
  0.2876   0.2907   0.2939   0.2996   0.3019   0.3051   0.3093   0.3126
  0.3190   0.3206   0.3246   0.3351   0.3381   0.3487   0.3508   0.3639
  0.3659   0.3708   0.3724   0.3771   0.3798   0.3967   0.3971   0.4078
  0.4100   0.4226   0.4282   0.4373   0.4488   0.4543   0.4642   0.4758
  0.4791   0.4867   0.5246   0.5928   0.6475   0.6659   0.6875   0.6946
  0.6951   0.7428   0.7441   0.7614   0.7625   0.7760   0.7856   0.8050
  0.8098   0.8101   0.8199   0.8238   0.8294   0.8335   0.8436   0.8540
  0.8651   0.8819   0.8846   0.8956   0.9024   0.9396   0.9508   0.9649
  0.9823   0.9949   1.0152   1.0187   1.0313   1.0341   1.0418   1.0527
  1.0578   1.0665   1.1032   1.1123   1.1157   1.1158   1.1320   1.1538
  1.1586   1.1806   1.1882   1.1978   1.1994   1.2050   1.2268   1.2310
  1.2469   1.2474   1.2722   1.2867   1.3025   1.3043   1.3228   1.3574
  1.3699   1.3728   1.3933   1.3963   1.4377   1.4748   1.4829   1.5045
  1.5190   1.5191   1.5319   1.5529   1.5609   1.5677   1.5742   1.5750
  1.5823   1.5830   1.7078   1.7511   1.8135   1.8348   1.8930   1.8937
  1.9185   1.9249   1.9274   1.9771   2.0078   2.0305   2.0347   2.0647
  2.0727   2.0784   2.0869   2.0910   2.1653   2.1666   2.1910   2.2080
  2.2189   2.2323   2.2351   2.2447   2.2571   2.2757   2.3074   2.3272
  2.3442   2.3786   2.3852   2.3869   2.4456   2.4851   2.4933   2.5250
  2.5552   2.6356   2.6702   2.7022   2.7071   2.7072   2.7262   2.7466
  2.7548   2.8148   2.8202   2.8404   2.8462   2.8530   2.8805   2.9190
  2.9337   3.0325   3.0392   3.0880   3.1870   3.3776   3.4977   3.5100
  4.2575   4.3339   4.3369   4.3560   4.3689   4.4145   4.4297   4.4797
  4.4847   4.4885   4.5277   4.5651   4.8007   4.8284
 --------------------------------------------------------------
 
          Ground-State Mulliken Net Atomic Charges

     Atom                 Charge (a.u.)
  ----------------------------------------
      1 N                     0.005235
      2 N                     0.005246
      3 C                    -0.414582
      4 C                    -0.414594
      5 C                     0.341545
      6 C                     0.341572
      7 C                    -0.111997
      8 C                    -0.111992
      9 C                    -0.432649
     10 C                    -0.432669
     11 C                    -0.299417
     12 C                    -0.299420
     13 C                    -0.178334
     14 C                    -0.178330
     15 H                     0.222765
     16 H                     0.222766
     17 H                     0.226143
     18 H                     0.226144
     19 H                     0.214647
     20 H                     0.214647
     21 H                     0.214549
     22 H                     0.214549
     23 H                     0.212089
     24 H                     0.212089
  ----------------------------------------
  Sum of atomic charges =     0.000000

 -----------------------------------------------------------------
                    Cartesian Multipole Moments
 -----------------------------------------------------------------
    Charge (ESU x 10^10)
                 0.0000
    Dipole Moment (Debye)
         X      -0.0000      Y       3.0814      Z       0.0001
       Tot       3.0814
    Quadrupole Moments (Debye-Ang)
        XX     -69.4953     XY       0.0001     YY     -87.7854
        XZ      -3.8958     YZ      -0.0003     ZZ     -76.0364
    Octopole Moments (Debye-Ang^2)
       XXX      -0.0010    XXY      27.1507    XYY      -0.0009
       YYY      19.3643    XXZ       0.0006    XYZ      16.6277
       YYZ       0.0002    XZZ       0.0012    YZZ       1.6870
       ZZZ       0.0002
    Hexadecapole Moments (Debye-Ang^3)
      XXXX   -3001.9944   XXXY       0.0043   XXYY    -609.5822
      XYYY      -0.0014   YYYY    -638.3031   XXXZ    -115.6326
      XXYZ      -0.0006   XYYZ      19.4144   YYYZ      -0.0026
      XXZZ    -591.8137   XYZZ       0.0015   YYZZ    -155.7616
      XZZZ     -15.4365   YZZZ       0.0010   ZZZZ    -435.4486
 -----------------------------------------------------------------
 Total job time:  102.75s(wall), 786.55s(cpu) 
 Wed Dec 10 21:46:42 2025

        *************************************************************
        *                                                           *
        *  Thank you very much for using Q-Chem.  Have a nice day.  *
        *                                                           *
        *************************************************************


