
Running Job 1 of 1 cis_vert_solv.in
qchem cis_vert_solv.in_2141719.0 /scratch1/hulinfen/qchem2141719/ 1
/apps/generic/qchem/6.3.0/openmp/exe/qcprog.exe_s cis_vert_solv.in_2141719.0 /scratch1/hulinfen/qchem2141719/
                  Welcome to Q-Chem
     A Quantum Leap Into The Future Of Chemistry


 Q-Chem 6.3, Q-Chem, Inc., Pleasanton, CA (2025)

 License issued to: University of Southern California (site)

 E. Epifanovsky,  A. T. B. Gilbert,  Xintian Feng,  Joonho Lee,  Yuezhi Mao,  
 N. Mardirossian,  P. Pokhilko,  A. White,  M. Wormit,  M. P. Coons,  
 A. L. Dempwolff,  Zhengting Gan,  D. Hait,  P. R. Horn,  L. D. Jacobson,  
 I. Kaliman,  J. Kussmann,  A. W. Lange,  Ka Un Lao,  D. S. Levine,  Jie Liu,  
 S. C. McKenzie,  A. F. Morrison,  K. D. Nanda,  F. Plasser,  D. R. Rehn,  
 M. L. Vidal,  Zhi-Qiang You,  Ying Zhu,  Huseyin Aksu,  B. Alam,  
 B. Albrecht,  A. Aldossary,  E. Alguire,  J. H. Andersen,  
 J. E. Arias-Martinez,  V. Athavale,  F. Ballesteros,  D. Barton,  K. Begam,  
 A. Behn,  N. Bellonzi,  Y. A. Bernard,  E. J. Berquist,  H. Burton,  
 S. Camps,  A. Carreras,  K. Carter-Fenk,  Mathew Chow,  Romit Chakraborty,  
 Chandrima Chakravarty,  Junhan Chen,  A. D. Chien,  K. D. Closser,  
 V. Cofer-Shabica,  L. Cunha,  S. Dasgupta,  Jia Deng,  Joseph Dickinson,  
 M. de Wergifosse,  M. Diedenhofen,  L. B. Dittmer,  Hainam Do,  Wenjie Dou,  
 S. Ehlert,  Po-Tung Fang,  S. Fatehi,  Qingguo Feng,  Jonathan Fetherolf,  
 T. Friedhoff,  Thomas Froitzheim,  Sarai Folkestad,  B. Ganoe,  J. Gayvert,  
 Qinghui Ge,  G. Gidofalvi,  M. Gimferrer,  G. Giudetti,  M. Goldey,  
 Montgomery Gray,  J. Gomes,  C. Gonzalez-Espinoza,  S. Gulania,  A. Gunina,  
 J. A. Gyamfi,  M. W. D. Hanson-Heine,  P. H. P. Harbach,  A. W. Hauser,  
 M. F. Herbst,  M. Hernandez Vera,  M. Hodecker,  Z. C. Holden,  S. Houck,  
 Xunkun Huang,  Kerwin Hui,  B. C. Huynh,  K. Ikeda,  M. Ivanov,  
 Nayanthara K. Jayadev,  Hyunjun Ji,  Zuxin Jin,  Hanjie Jiang,  
 Subrata Jana,  B. Kaduk,  S. Kaehler,  R. Kang,  Richard Kang,  
 K. Khistyaev,  Jaehoon Kim,  Yongbin Kim,  P. Klunzinger,  Z. Koczor-Benda,  
 Joong Hoon Koh,  D. Kosenkov,  Saikiran Kotaru,  L. Koulias,  T. Kowalczyk,  
 C. M. Krauter,  K. Kue,  A. Kunitsa,  T. Kus,  A. Landau,  C. W. Lander,  
 K. V. Lawler,  D. Lefrancois,  S. Lehtola,  Rain Li,  Shaozhi Li,  
 Tao E. Li,  Yi-Pei Li,  Jiashu Liang,  M. Liebenthal,  Hung-Hsuan Lin,  
 You-Sheng Lin,  Fenglai Liu,  Kuan-Yu Liu,  Xiao Liu,  M. Loipersberger,  
 A. Luenser,  C. Malbon,  Aniket Mandal,  Manisha,  A. Manjanath,  
 P. Manohar,  E. Mansoor,  S. F. Manzer,  Shan-Ping Mao,  A. V. Marenich,  
 T. Markovich,  S. Mason,  F. Matz,  S. A. Maurer,  Samuel May,  
 Alexandra McIsaac,  P. F. McLaughlin,  M. F. S. J. Menger,  J.-M. Mewes,  
 S. A. Mewes,  R. E. Moorby,  P. Morgante,  Mohammad Mostafanejad,  
 Madhubani Mukherjee,  J. W. Mullinax,  Quyen Nguyen,  Avik Kumar Ojha,  
 K. J. Oosterbaan,  Eno Paenurk,  Xiaoliang Pan,  G. Paran,  V. Parravicini,  
 R. L. Patterson,  Alexander C. Paul,  Suranjan K. Paul,  F. Pavosevic,  
 Zheng Pei,  P. Pokhilko,  S. Prager,  E. I. Proynov,  E. Ramos,  B. Rana,  
 A. E. Rask,  A. Rettig,  R. M. Richard,  F. Rob,  E. Rossomme,  S. Roy,  
 T. Scheele,  M. Scheurer,  M. Schneider,  P. E. Schneider,  Tim K. Schramm,  
 N. Sergueev,  S. M. Sharada,  Hengyuan Shen,  W. Skomorowski,  D. W. Small,  
 C. J. Stein,  Alistair J. Sterling,  Yingli Su,  Yu-Chuan Su,  
 E. J. Sundstrom,  J. Talbot,  J. A. Tan,  Zhen Tao,  Hung-Hsuan Teh,  
 J. Thirman,  C. Titeca,  N. Tkachenko,  Hung-Yi Tsai,  T. Tsuchimochi,  
 N. M. Tubman,  C. Utku,  S. P. Veccham,  O. Vydrov,  Z. Wang,  Rahel Weiss,  
 J. Wenzel,  Jonathan Wong,  J. Witte,  H. Wu,  Yanze Wu,  A. Yamada,  
 Chou-Hsun Yang,  Kun Yao,  S. Yeganeh,  S. R. Yost,  Qi Yu,  A. Zech,  
 F. Zeller,  Chongxiao Zhao,  T. Zhao,  Igor Ying Zhang,  Xing Zhang,  
 Yu Zhang,  D. Zuev,  A. Aspuru-Guzik,  A. T. Bell,  N. A. Besley,  
 K. B. Bravaya,  B. R. Brooks,  D. Casanova,  Jeng-Da Chai,  Hsing-Ta Chen,  
 S. Coriani,  C. J. Cramer,  A. E. DePrince, III,  R. A. DiStasio Jr.,  
 A. Dreuw,  B. D. Dunietz,  T. R. Furlani,  W. A. Goddard III,  S. Grimme,  
 S. Hammes-Schiffer,  T. Head-Gordon,  W. J. Hehre,  Chao-Ping Hsu,  
 T.-C. Jagau,  Yousung Jung,  A. Klamt,  Jing Kong,  D. S. Lambrecht,  
 Xiangyuan Li,  WanZhen Liang,  N. J. Mayhall,  C. W. McCurdy,  J. B. Neaton,  
 T. Neudecker,  C. Ochsenfeld,  J. A. Parkhill,  R. Peverati,  
 V. A. Rassolov,  Haisheng Ren,  Yihan Shao,  L. V. Slipchenko,  
 R. P. Steele,  J. E. Subotnik,  A. J. W. Thom,  A. Tkatchenko,  
 D. G. Truhlar,  T. Van Voorhis,  Fan Wang,  T. A. Wesolowski,  K. B. Whaley,  
 H. L. Woodcock III,  P. M. Zimmerman,  S. Faraji,  P. M. W. Gill,  
 M. Head-Gordon,  J. M. Herbert,  A. I. Krylov

 Contributors to earlier versions of Q-Chem not listed above: 
 R. D. Adamson,  B. Austin,  R. Baer,  J. Baker,  G. J. O. Beran,  
 K. Brandhorst,  S. T. Brown,  E. F. C. Byrd,  Arup K. Chakraborty,  
 G. K. L. Chan,  Chun-Min Chang,  Yunqing Chen,  C.-L. Cheng,  
 Siu Hung Chien,  D. M. Chipman,  D. L. Crittenden,  H. Dachsel,  
 R. J. Doerksen,  A. D. Dutoi,  R. G. Edgar,  J. Fosso-Tande,  
 L. Fusti-Molnar,  D. Ghosh,  A. Ghysels,  A. Golubeva-Zadorozhnaya,  
 J. Gonthier,  M. S. Gordon,  S. R. Gwaltney,  G. Hawkins,  J. E. Herr,  
 A. Heyden,  S. Hirata,  E. G. Hohenstein,  G. Kedziora,  F. J. Keil,  
 C. Kelley,  Jihan Kim,  R. A. King,  R. Z. Khaliullin,  P. P. Korambath,  
 W. Kurlancheek,  A. Laurent,  A. M. Lee,  M. S. Lee,  S. V. Levchenko,  
 Ching Yeh Lin,  D. Liotard,  E. Livshits,  R. C. Lochan,  I. Lotan,  
 L. A. Martinez-Martinez,  P. E. Maslen,  N. Nair,  D. P. O'Neill,  
 D. Neuhauser,  E. Neuscamman,  C. M. Oana,  R. Olivares-Amaya,  R. Olson,  
 T. M. Perrine,  B. Peters,  P. A. Pieniazek,  A. Prociuk,  Y. M. Rhee,  
 J. Ritchie,  M. A. Rohrdanz,  E. Rosta,  N. J. Russ,  H. F. Schaefer III,  
 M. W. Schmidt,  N. E. Schultz,  S. Sharma,  N. Shenvi,  C. D. Sherrill,  
 A. C. Simmonett,  A. Sodt,  T. Stein,  D. Stuck,  K. S. Thanthiriwatte,  
 V. Vanovschi,  L. Vogt,  Tao Wang,  A. Warshel,  M. A. Watson,  
 C. F. Williams,  Q. Wu,  X. Xu,  Jun Yang,  W. Zhang,  Yan Zhao

   Please cite Q-Chem as follows:
  "Software for the frontiers of quantum chemistry:
   An overview of developments in the Q-Chem 5 package"
   J. Chem. Phys. 155, 084801 (2021)
   https://doi.org/10.1063/5.0055522 (open access)

 Q-Chem 6.3.0 for Intel X86 EM64T Linux

 Parts of Q-Chem use Armadillo 12.8.2 (Cortisol Injector).
 http://arma.sourceforge.net/

 Q-Chem begins on Wed Dec  3 15:02:07 2025  

 Host: 
0

     Scratch files written to /scratch1/hulinfen/qchem2141719//
 May2125 |scratch|qcdevops|jenkins|workspace|build_RNUM -1
 Processing $rem in /apps/generic/qchem/6.3.0/openmp/config/preferences:
 Processing $rem in /home1/hulinfen/.qchemrc:
 Symmetry turned off for PCM/SM12/SMD calculation

 Checking the input file for inconsistencies... 	...done.

--------------------------------------------------------------
User input:
--------------------------------------------------------------
$molecule
0 1
N    0.6198703   -2.0063510    0.0357285
N   -0.6199107   -2.0063484   -0.0355631
C    1.3897818   -0.7982304    0.1445157
C   -1.3898039   -0.7982250   -0.1444347
C    1.1691515    0.1463176    1.1493039
C   -1.1690925    0.1462786   -1.1492442
C    2.4816277   -0.6732729   -0.7138430
C   -2.4816946   -0.6732110    0.7138588
C    2.0245268    1.2379208    1.2609537
C   -2.0244358    1.2378978   -1.2609840
C    3.3133572    0.4381094   -0.6153864
C   -3.3133939    0.4381859    0.6153111
C    3.0875351    1.3957996    0.3723568
C   -3.0874923    1.3958345   -0.3724547
H    0.3375686    0.0259621    1.8363428
H   -0.3374648    0.0258776   -1.8362222
H    2.6635622   -1.4455302   -1.4556806
H   -2.6636891   -1.4454362    1.4557154
H    1.8542020    1.9722570    2.0428872
H   -1.8540446    1.9722045   -2.0429307
H    4.1495040    0.5478688   -1.2997227
H   -4.1495738    0.5479941    1.2995992
H    3.7454165    2.2553694    0.4592472
H   -3.7453473    2.2554175   -0.4594138
$end

$rem
JOB_TYPE        = SP
METHOD          = wB97X-D
BASIS           = 6-31+G*
GUI             = 2

CIS_N_ROOTS     = 10
CIS_SINGLETS    = TRUE
CIS_TRIPLETS    = FALSE

SCF_ALGORITHM   = diis
MAX_SCF_CYCLES  = 200
SCF_CONVERGENCE = 8
THRESH          = 12

SOLVENT_METHOD  = PCM
$end

$pcm
Theory CPCM
Method SWIG
Solver Inversion
$end

$solvent
Dielectric 37.5
$end

--------------------------------------------------------------
 ----------------------------------------------------------------
             Standard Nuclear Orientation (Angstroms)
    I     Atom           X                Y                Z
 ----------------------------------------------------------------
    1      N       0.6198703000    -2.0063510000     0.0357285000
    2      N      -0.6199107000    -2.0063484000    -0.0355631000
    3      C       1.3897818000    -0.7982304000     0.1445157000
    4      C      -1.3898039000    -0.7982250000    -0.1444347000
    5      C       1.1691515000     0.1463176000     1.1493039000
    6      C      -1.1690925000     0.1462786000    -1.1492442000
    7      C       2.4816277000    -0.6732729000    -0.7138430000
    8      C      -2.4816946000    -0.6732110000     0.7138588000
    9      C       2.0245268000     1.2379208000     1.2609537000
   10      C      -2.0244358000     1.2378978000    -1.2609840000
   11      C       3.3133572000     0.4381094000    -0.6153864000
   12      C      -3.3133939000     0.4381859000     0.6153111000
   13      C       3.0875351000     1.3957996000     0.3723568000
   14      C      -3.0874923000     1.3958345000    -0.3724547000
   15      H       0.3375686000     0.0259621000     1.8363428000
   16      H      -0.3374648000     0.0258776000    -1.8362222000
   17      H       2.6635622000    -1.4455302000    -1.4556806000
   18      H      -2.6636891000    -1.4454362000     1.4557154000
   19      H       1.8542020000     1.9722570000     2.0428872000
   20      H      -1.8540446000     1.9722045000    -2.0429307000
   21      H       4.1495040000     0.5478688000    -1.2997227000
   22      H      -4.1495738000     0.5479941000     1.2995992000
   23      H       3.7454165000     2.2553694000     0.4592472000
   24      H      -3.7453473000     2.2554175000    -0.4594138000
 ----------------------------------------------------------------
 Nuclear Repulsion Energy =         793.73139478 hartrees
 There are       48 alpha and       48 beta electrons
 Requested basis set is 6-31+G(d)
 There are 90 shells and 286 basis functions

 Total QAlloc Memory Limit   8000 MB
 Mega-Array Size       188 MB
 MEM_STATIC part       192 MB


 Q-Chem warning in module libscrf/libscrf/pcm/PCM_CLASS/read_pcm_solvent.C, line 176:

 Using eps_inf = 1.78 (water) for excited-state calculations

 Using C-PCM dielectric factor f(eps) = (eps-1)/eps = 0.973333
 Static dielectric constant eps = 37.50
 Discretize the solute cavity surface with Lebedev spheres
	Using 110 Lebedev grid points for each H atom
	Using 194 Lebedev grid points for other atoms
	Atomic van der Waals radii (Bondi set) will be scaled by 1.20
 Using smooth SwiG surface discretization
 Remove points where switching function is < 1.0e-08
 Keep 1648 surface tesserae and discard 2168 interior tesserae
 Molecular Surface Area = 229.038 Angst**2

 A cutoff of  1.0D-12 yielded   3523 shell pairs
 There are     37591 function pairs
 Smallest overlap matrix eigenvalue = 2.46E-06

 Scale SEOQF with 1.000000e-01/1.000000e-01/1.000000e-01

 Standard Electronic Orientation quadrupole field applied
 Nucleus-field energy     =     0.0000000200 hartrees
 Guess from superposition of atomic densities
 Warning:  Energy on first SCF cycle will be non-variational
 SAD guess density has 96.000000 electrons

 -----------------------------------------------------------------------
  General SCF calculation program by
  Eric Jon Sundstrom, Paul Horn, Yuezhi Mao, Dmitri Zuev, Alec White,
  David Stuck, Shaama M.S., Shane Yost, Joonho Lee, David Small,
  Daniel Levine, Susi Lehtola, Hugh Burton, Evgeny Epifanovsky,
  Bang C. Huynh
 -----------------------------------------------------------------------
 Exchange:     0.2220 Hartree-Fock + 1.0000 wB97X-D + LR-HF
 Correlation:  1.0000 wB97X-D
 Using SG-2 standard quadrature grid
 Dispersion:   Grimme D
 using 8 threads for integral computing
 -------------------------------------------------------
 OpenMP Integral computing Module                
 Release: version 1.0, May 2013, Q-Chem Inc. Pittsburgh 
 -------------------------------------------------------
 C-PCM solvent model [f = (eps-1)/eps], solve by matrix inversion
 A restricted SCF calculation will be
 performed using DIIS
 SCF converges when DIIS error is below 1.0e-08
 User-specified cutoff of 10e-12
 used for neglect of 2-electron integrals.
 A cutoff of 10e-12
 used for neglect of overlap integrals.
 Incremental Fock algorithm is on at the start.
 ---------------------------------------
  Cycle       Energy         DIIS error
 ---------------------------------------
    1    -576.7795746051      4.29e-02  
    2    -572.4804085213      2.61e-03  
    3    -572.5284959018      1.82e-03  
    4    -572.5609230003      3.66e-04  
    5    -572.5624950836      1.31e-04  
    6    -572.5627140154      3.35e-05  
    7    -572.5627322597      1.54e-05  
    8    -572.5627361305      4.10e-06  
    9    -572.5627366349      8.04e-07  
   10    -572.5627366580      3.40e-07  
   11    -572.5627366612      1.58e-07  
   12    -572.5627366619      3.26e-08  
   13    -572.5627366619      1.30e-08  
   14    -572.5627366619      8.00e-09  Convergence criterion met
 ---------------------------------------
 SCF time:   CPU 526.60s  wall 73.00s 

************** Final PCM Free Energy Summary **************
 G_electrostatic  =      -0.01581074 hartree =      -9.92139095 kcal/mol
 G_cavitation     =       0.00000000 hartree =       0.00000000 kcal/mol
 G_dispersion     =       0.00000000 hartree =       0.00000000 kcal/mol
 G_repulsion      =       0.00000000 hartree =       0.00000000 kcal/mol
 --------------------------------------------------
 Non-electrostatic Free Energy =       0.00000000 hartree =       0.00000000 kcal/mol
 Total                         =      -0.01581074 hartree =      -9.92139095 kcal/mol
 --------------------------------------------------
 SCF Energy (H0 + V/2)                       =    -572.56273666 
 Solute Internal Energy (H0)                 =    -572.54692592 
 Total Free Energy (H0 + V/2 + non-elec)     =    -572.56273666 hartree
                                             = -359288.54175084 kcal/mol
***********************************************************

 SCF   energy =  -572.56273666
 Total energy =  -572.56273666
 Integrated density by DFT XC:
   Number of electrons = 96
   Numerical integral  =    95.996163018361
   Relative error      =     0.0039968559 %

 CIS/TDDFT Memory Preview
 --------------------------
 	O*V dim = 22848
 	Mem per subspace vector = 0.2 Mb
 	Max subspace size fits in available memory
 Direct TDDFT/TDA calculation will be performed
 Exchange:     0.2220 Hartree-Fock + 1.0000 wB97X-D + LR-HF
 Correlation:  1.0000 wB97X-D
 Using SG-2 standard quadrature grid
 Dispersion:   Grimme D
 Singlet excitation energies requested
 Adding PCM contribution to the XC response (LR-PCM)
 Optical dielectric constant (eps_inf) =  1.78
 CIS energy converged when residual is below 10e- 6
 ---------------------------------------------------
 Iter    Rts Conv    Rts Left    Ttl Dev     Max Dev
 ---------------------------------------------------
   1         0          10      0.006000    0.000917
   2         0          10      0.002384    0.000343
   3         0          10      0.001167    0.000176
   4         0          10      0.000828    0.000267
   5         0          10      0.000393    0.000159
   6         1           9      0.000137    0.000053
   7         2           8      0.000064    0.000026
   8         6           4      0.000037    0.000020
   9         7           3      0.000017    0.000009
  10         8           2      0.000009    0.000004
  11         9           1      0.000006    0.000001
  12        10           0      0.000005    0.000001    Roots Converged
 ---------------------------------------------------
 
 ---------------------------------------------------
         TDDFT/TDA Excitation Energies              
 ---------------------------------------------------

 Excited state   1: excitation energy (eV) =       2.9734
 Total energy for state   1:                  -572.45346702 au
    Multiplicity: Singlet
    Trans. Mom.:  0.6837 X  -0.0000 Y   0.3232 Z
    Strength   :     0.0416585398
    D(   44) --> V(    1) amplitude =  0.4102
    D(   48) --> V(    1) amplitude =  0.8594

 Excited state   2: excitation energy (eV) =       4.6066
 Total energy for state   2:                  -572.39344601 au
    Multiplicity: Singlet
    Trans. Mom.:  1.1830 X   0.0000 Y   0.2515 Z
    Strength   :     0.1650761267
    D(   44) --> V(    1) amplitude = -0.5152
    D(   47) --> V(    1) amplitude =  0.6819
    D(   48) --> V(    1) amplitude =  0.4231

 Excited state   3: excitation energy (eV) =       4.7594
 Total energy for state   3:                  -572.38783324 au
    Multiplicity: Singlet
    Trans. Mom.: -0.0002 X   0.5906 Y  -0.0001 Z
    Strength   :     0.0406751672
    D(   45) --> V(    1) amplitude = -0.2679
    D(   46) --> V(    1) amplitude =  0.8933

 Excited state   4: excitation energy (eV) =       4.9579
 Total energy for state   4:                  -572.38053892 au
    Multiplicity: Singlet
    Trans. Mom.: -0.9331 X   0.0000 Y   0.1322 Z
    Strength   :     0.1078815934
    D(   44) --> V(    1) amplitude =  0.6485
    D(   46) --> V(    3) amplitude = -0.2230
    D(   47) --> V(    1) amplitude =  0.5129
    D(   48) --> V(    2) amplitude =  0.3924

 Excited state   5: excitation energy (eV) =       5.0338
 Total energy for state   5:                  -572.37774804 au
    Multiplicity: Singlet
    Trans. Mom.:  0.0001 X  -0.3040 Y   0.0000 Z
    Strength   :     0.0114010221
    D(   45) --> V(    1) amplitude =  0.7866
    D(   46) --> V(    1) amplitude =  0.2244
    D(   48) --> V(    3) amplitude =  0.3260
    D(   48) --> V(    4) amplitude =  0.2475

 Excited state   6: excitation energy (eV) =       5.6130
 Total energy for state   6:                  -572.35646216 au
    Multiplicity: Singlet
    Trans. Mom.:  0.9114 X  -0.0001 Y  -0.7019 Z
    Strength   :     0.1819680297
    D(   44) --> V(    1) amplitude = -0.2136
    D(   46) --> V(    3) amplitude = -0.2267
    D(   47) --> V(    1) amplitude = -0.4441
    D(   48) --> V(    2) amplitude =  0.7596

 Excited state   7: excitation energy (eV) =       5.7703
 Total energy for state   7:                  -572.35068158 au
    Multiplicity: Singlet
    Trans. Mom.:  0.0002 X   0.8502 Y  -0.0001 Z
    Strength   :     0.1021863766
    D(   45) --> V(    1) amplitude = -0.4222
    D(   46) --> V(    1) amplitude = -0.2163
    D(   48) --> V(    3) amplitude =  0.7451

 Excited state   8: excitation energy (eV) =       5.9217
 Total energy for state   8:                  -572.34511960 au
    Multiplicity: Singlet
    Trans. Mom.:  0.0000 X  -0.3636 Y  -0.0001 Z
    Strength   :     0.0191836116
    D(   44) --> V(    3) amplitude = -0.2273
    D(   46) --> V(    2) amplitude = -0.2971
    D(   47) --> V(    3) amplitude = -0.2501
    D(   48) --> V(    3) amplitude = -0.4145
    D(   48) --> V(    4) amplitude =  0.6953

 Excited state   9: excitation energy (eV) =       6.0804
 Total energy for state   9:                  -572.33928745 au
    Multiplicity: Singlet
    Trans. Mom.: -0.4119 X   0.0001 Y  -0.0741 Z
    Strength   :     0.0260974722
    D(   47) --> V(    2) amplitude =  0.2327
    D(   48) --> V(    5) amplitude =  0.2444
    D(   48) --> V(    6) amplitude =  0.8016

 Excited state  10: excitation energy (eV) =       6.4030
 Total energy for state  10:                  -572.32743006 au
    Multiplicity: Singlet
    Trans. Mom.: -0.4069 X   0.0001 Y   0.2763 Z
    Strength   :     0.0379549007
    D(   44) --> V(    2) amplitude = -0.4754
    D(   45) --> V(    4) amplitude =  0.2741
    D(   46) --> V(    3) amplitude = -0.4932
    D(   47) --> V(    2) amplitude =  0.2826
    D(   47) --> V(    6) amplitude = -0.2424
    D(   48) --> V(    2) amplitude = -0.3753
    D(   48) --> V(    5) amplitude = -0.2129
 
 ---------------------------------------------------
  SETman timing summary (seconds)
  CPU time              1140.98s
  System time              0.00s
  Wall time              169.49s
 
 --------------------------------------------------------------
 
                    Orbital Energies (a.u.)
 --------------------------------------------------------------
 
 Alpha MOs
 -- Occupied --
-14.5306 -14.5301 -10.3482 -10.3482 -10.3180 -10.3180 -10.3160 -10.3160
-10.3146 -10.3146 -10.3144 -10.3144 -10.3127 -10.3127  -1.1614  -0.9820
 -0.9705  -0.9009  -0.8635  -0.8597  -0.8591  -0.7822  -0.7278  -0.7145
 -0.7144  -0.6685  -0.6451  -0.5963  -0.5860  -0.5669  -0.5639  -0.5397
 -0.5323  -0.5220  -0.5181  -0.5103  -0.4913  -0.4628  -0.4585  -0.4571
 -0.4510  -0.4335  -0.4298  -0.3564  -0.3508  -0.3390  -0.3375  -0.3035
 -- Virtual --
 -0.0151   0.0424   0.0457   0.0575   0.0681   0.0707   0.0822   0.0871
  0.0886   0.0992   0.1006   0.1034   0.1060   0.1145   0.1223   0.1248
  0.1326   0.1347   0.1438   0.1476   0.1580   0.1682   0.1779   0.1797
  0.1811   0.1865   0.1875   0.1950   0.1977   0.1990   0.2056   0.2118
  0.2211   0.2228   0.2255   0.2320   0.2390   0.2442   0.2454   0.2474
  0.2511   0.2522   0.2624   0.2661   0.2767   0.2772   0.2813   0.2821
  0.2908   0.2921   0.2958   0.2969   0.3024   0.3056   0.3134   0.3176
  0.3190   0.3196   0.3261   0.3306   0.3407   0.3454   0.3466   0.3527
  0.3646   0.3681   0.3725   0.3800   0.3878   0.3923   0.3938   0.4054
  0.4072   0.4252   0.4263   0.4382   0.4432   0.4433   0.4592   0.4618
  0.4720   0.4804   0.4902   0.5664   0.6393   0.6510   0.6942   0.6993
  0.7025   0.7110   0.7448   0.7605   0.7629   0.7847   0.7951   0.8056
  0.8098   0.8223   0.8257   0.8298   0.8385   0.8397   0.8473   0.8578
  0.8693   0.8857   0.8878   0.8954   0.9129   0.9377   0.9542   0.9606
  0.9906   0.9954   1.0199   1.0322   1.0385   1.0459   1.0491   1.0622
  1.0646   1.0767   1.0838   1.1056   1.1119   1.1231   1.1256   1.1489
  1.1589   1.1737   1.1796   1.1866   1.1951   1.2020   1.2176   1.2180
  1.2506   1.2593   1.2722   1.2831   1.3007   1.3068   1.3252   1.3358
  1.3732   1.3758   1.3909   1.4139   1.4675   1.4770   1.5053   1.5235
  1.5352   1.5440   1.5518   1.5602   1.5644   1.5773   1.5829   1.5872
  1.5965   1.6036   1.6486   1.7120   1.7290   1.8222   1.8888   1.9165
  1.9182   1.9413   1.9520   1.9838   2.0083   2.0414   2.0484   2.0606
  2.0696   2.0728   2.0958   2.1178   2.1916   2.2010   2.2048   2.2275
  2.2326   2.2333   2.2416   2.2432   2.2572   2.2573   2.3217   2.3365
  2.3443   2.3680   2.3894   2.3894   2.4158   2.4347   2.4861   2.5498
  2.6341   2.6567   2.6794   2.6984   2.7132   2.7154   2.7317   2.7486
  2.7647   2.8187   2.8270   2.8318   2.8359   2.8522   2.8828   2.9036
  2.9272   2.9695   3.0209   3.1817   3.1915   3.3123   3.4973   3.5227
  4.2117   4.3491   4.3491   4.3586   4.3666   4.4217   4.4400   4.4670
  4.5020   4.5241   4.5466   4.6029   4.8080   4.8294
 --------------------------------------------------------------
 
          Ground-State Mulliken Net Atomic Charges

     Atom                 Charge (a.u.)
  ----------------------------------------
      1 N                    -0.074422
      2 N                    -0.074410
      3 C                    -0.211564
      4 C                    -0.211567
      5 C                     0.244578
      6 C                     0.244645
      7 C                    -0.236283
      8 C                    -0.236299
      9 C                    -0.406470
     10 C                    -0.406502
     11 C                    -0.303874
     12 C                    -0.303879
     13 C                    -0.258808
     14 C                    -0.258796
     15 H                     0.257274
     16 H                     0.257275
     17 H                     0.252868
     18 H                     0.252869
     19 H                     0.246230
     20 H                     0.246230
     21 H                     0.246339
     22 H                     0.246340
     23 H                     0.244113
     24 H                     0.244114
  ----------------------------------------
  Sum of atomic charges =     0.000000

 -----------------------------------------------------------------
                    Cartesian Multipole Moments
 -----------------------------------------------------------------
    Charge (ESU x 10^10)
                 0.0000
    Dipole Moment (Debye)
         X      -0.0000      Y       4.8149      Z      -0.0002
       Tot       4.8149
    Quadrupole Moments (Debye-Ang)
        XX     -70.4673     XY      -0.0001     YY     -87.9319
        XZ      -7.0734     YZ       0.0005     ZZ     -75.2407
    Octopole Moments (Debye-Ang^2)
       XXX      -0.0032    XXY      32.0585    XYY       0.0001
       YYY      44.4708    XXZ      -0.0010    XYZ      14.8810
       YYZ      -0.0024    XZZ       0.0003    YZZ       3.4637
       ZZZ      -0.0012
    Hexadecapole Moments (Debye-Ang^3)
      XXXX   -2397.9322   XXXY       0.0015   XXYY    -500.1819
      XYYY       0.0010   YYYY    -837.9232   XXXZ    -170.1943
      XXYZ       0.0021   XYYZ       1.5082   YYYZ       0.0116
      XXZZ    -483.0251   XYZZ       0.0010   YYZZ    -177.4589
      XZZZ     -51.3161   YZZZ       0.0077   ZZZZ    -418.0817
 -----------------------------------------------------------------
 Total job time:  244.02s(wall), 1672.21s(cpu) 
 Wed Dec  3 15:06:11 2025

        *************************************************************
        *                                                           *
        *  Thank you very much for using Q-Chem.  Have a nice day.  *
        *                                                           *
        *************************************************************


