
Running Job 1 of 1 trans_opt2.in
qchem trans_opt2.in_3771195.0 /scratch1/hulinfen/qchem3771195/ 1
/apps/generic/qchem/6.3.0/openmp/exe/qcprog.exe_s trans_opt2.in_3771195.0 /scratch1/hulinfen/qchem3771195/
                  Welcome to Q-Chem
     A Quantum Leap Into The Future Of Chemistry


 Q-Chem 6.3, Q-Chem, Inc., Pleasanton, CA (2025)

 License issued to: University of Southern California (site)

 E. Epifanovsky,  A. T. B. Gilbert,  Xintian Feng,  Joonho Lee,  Yuezhi Mao,  
 N. Mardirossian,  P. Pokhilko,  A. White,  M. Wormit,  M. P. Coons,  
 A. L. Dempwolff,  Zhengting Gan,  D. Hait,  P. R. Horn,  L. D. Jacobson,  
 I. Kaliman,  J. Kussmann,  A. W. Lange,  Ka Un Lao,  D. S. Levine,  Jie Liu,  
 S. C. McKenzie,  A. F. Morrison,  K. D. Nanda,  F. Plasser,  D. R. Rehn,  
 M. L. Vidal,  Zhi-Qiang You,  Ying Zhu,  Huseyin Aksu,  B. Alam,  
 B. Albrecht,  A. Aldossary,  E. Alguire,  J. H. Andersen,  
 J. E. Arias-Martinez,  V. Athavale,  F. Ballesteros,  D. Barton,  K. Begam,  
 A. Behn,  N. Bellonzi,  Y. A. Bernard,  E. J. Berquist,  H. Burton,  
 S. Camps,  A. Carreras,  K. Carter-Fenk,  Mathew Chow,  Romit Chakraborty,  
 Chandrima Chakravarty,  Junhan Chen,  A. D. Chien,  K. D. Closser,  
 V. Cofer-Shabica,  L. Cunha,  S. Dasgupta,  Jia Deng,  Joseph Dickinson,  
 M. de Wergifosse,  M. Diedenhofen,  L. B. Dittmer,  Hainam Do,  Wenjie Dou,  
 S. Ehlert,  Po-Tung Fang,  S. Fatehi,  Qingguo Feng,  Jonathan Fetherolf,  
 T. Friedhoff,  Thomas Froitzheim,  Sarai Folkestad,  B. Ganoe,  J. Gayvert,  
 Qinghui Ge,  G. Gidofalvi,  M. Gimferrer,  G. Giudetti,  M. Goldey,  
 Montgomery Gray,  J. Gomes,  C. Gonzalez-Espinoza,  S. Gulania,  A. Gunina,  
 J. A. Gyamfi,  M. W. D. Hanson-Heine,  P. H. P. Harbach,  A. W. Hauser,  
 M. F. Herbst,  M. Hernandez Vera,  M. Hodecker,  Z. C. Holden,  S. Houck,  
 Xunkun Huang,  Kerwin Hui,  B. C. Huynh,  K. Ikeda,  M. Ivanov,  
 Nayanthara K. Jayadev,  Hyunjun Ji,  Zuxin Jin,  Hanjie Jiang,  
 Subrata Jana,  B. Kaduk,  S. Kaehler,  R. Kang,  Richard Kang,  
 K. Khistyaev,  Jaehoon Kim,  Yongbin Kim,  P. Klunzinger,  Z. Koczor-Benda,  
 Joong Hoon Koh,  D. Kosenkov,  Saikiran Kotaru,  L. Koulias,  T. Kowalczyk,  
 C. M. Krauter,  K. Kue,  A. Kunitsa,  T. Kus,  A. Landau,  C. W. Lander,  
 K. V. Lawler,  D. Lefrancois,  S. Lehtola,  Rain Li,  Shaozhi Li,  
 Tao E. Li,  Yi-Pei Li,  Jiashu Liang,  M. Liebenthal,  Hung-Hsuan Lin,  
 You-Sheng Lin,  Fenglai Liu,  Kuan-Yu Liu,  Xiao Liu,  M. Loipersberger,  
 A. Luenser,  C. Malbon,  Aniket Mandal,  Manisha,  A. Manjanath,  
 P. Manohar,  E. Mansoor,  S. F. Manzer,  Shan-Ping Mao,  A. V. Marenich,  
 T. Markovich,  S. Mason,  F. Matz,  S. A. Maurer,  Samuel May,  
 Alexandra McIsaac,  P. F. McLaughlin,  M. F. S. J. Menger,  J.-M. Mewes,  
 S. A. Mewes,  R. E. Moorby,  P. Morgante,  Mohammad Mostafanejad,  
 Madhubani Mukherjee,  J. W. Mullinax,  Quyen Nguyen,  Avik Kumar Ojha,  
 K. J. Oosterbaan,  Eno Paenurk,  Xiaoliang Pan,  G. Paran,  V. Parravicini,  
 R. L. Patterson,  Alexander C. Paul,  Suranjan K. Paul,  F. Pavosevic,  
 Zheng Pei,  P. Pokhilko,  S. Prager,  E. I. Proynov,  E. Ramos,  B. Rana,  
 A. E. Rask,  A. Rettig,  R. M. Richard,  F. Rob,  E. Rossomme,  S. Roy,  
 T. Scheele,  M. Scheurer,  M. Schneider,  P. E. Schneider,  Tim K. Schramm,  
 N. Sergueev,  S. M. Sharada,  Hengyuan Shen,  W. Skomorowski,  D. W. Small,  
 C. J. Stein,  Alistair J. Sterling,  Yingli Su,  Yu-Chuan Su,  
 E. J. Sundstrom,  J. Talbot,  J. A. Tan,  Zhen Tao,  Hung-Hsuan Teh,  
 J. Thirman,  C. Titeca,  N. Tkachenko,  Hung-Yi Tsai,  T. Tsuchimochi,  
 N. M. Tubman,  C. Utku,  S. P. Veccham,  O. Vydrov,  Z. Wang,  Rahel Weiss,  
 J. Wenzel,  Jonathan Wong,  J. Witte,  H. Wu,  Yanze Wu,  A. Yamada,  
 Chou-Hsun Yang,  Kun Yao,  S. Yeganeh,  S. R. Yost,  Qi Yu,  A. Zech,  
 F. Zeller,  Chongxiao Zhao,  T. Zhao,  Igor Ying Zhang,  Xing Zhang,  
 Yu Zhang,  D. Zuev,  A. Aspuru-Guzik,  A. T. Bell,  N. A. Besley,  
 K. B. Bravaya,  B. R. Brooks,  D. Casanova,  Jeng-Da Chai,  Hsing-Ta Chen,  
 S. Coriani,  C. J. Cramer,  A. E. DePrince, III,  R. A. DiStasio Jr.,  
 A. Dreuw,  B. D. Dunietz,  T. R. Furlani,  W. A. Goddard III,  S. Grimme,  
 S. Hammes-Schiffer,  T. Head-Gordon,  W. J. Hehre,  Chao-Ping Hsu,  
 T.-C. Jagau,  Yousung Jung,  A. Klamt,  Jing Kong,  D. S. Lambrecht,  
 Xiangyuan Li,  WanZhen Liang,  N. J. Mayhall,  C. W. McCurdy,  J. B. Neaton,  
 T. Neudecker,  C. Ochsenfeld,  J. A. Parkhill,  R. Peverati,  
 V. A. Rassolov,  Haisheng Ren,  Yihan Shao,  L. V. Slipchenko,  
 R. P. Steele,  J. E. Subotnik,  A. J. W. Thom,  A. Tkatchenko,  
 D. G. Truhlar,  T. Van Voorhis,  Fan Wang,  T. A. Wesolowski,  K. B. Whaley,  
 H. L. Woodcock III,  P. M. Zimmerman,  S. Faraji,  P. M. W. Gill,  
 M. Head-Gordon,  J. M. Herbert,  A. I. Krylov

 Contributors to earlier versions of Q-Chem not listed above: 
 R. D. Adamson,  B. Austin,  R. Baer,  J. Baker,  G. J. O. Beran,  
 K. Brandhorst,  S. T. Brown,  E. F. C. Byrd,  Arup K. Chakraborty,  
 G. K. L. Chan,  Chun-Min Chang,  Yunqing Chen,  C.-L. Cheng,  
 Siu Hung Chien,  D. M. Chipman,  D. L. Crittenden,  H. Dachsel,  
 R. J. Doerksen,  A. D. Dutoi,  R. G. Edgar,  J. Fosso-Tande,  
 L. Fusti-Molnar,  D. Ghosh,  A. Ghysels,  A. Golubeva-Zadorozhnaya,  
 J. Gonthier,  M. S. Gordon,  S. R. Gwaltney,  G. Hawkins,  J. E. Herr,  
 A. Heyden,  S. Hirata,  E. G. Hohenstein,  G. Kedziora,  F. J. Keil,  
 C. Kelley,  Jihan Kim,  R. A. King,  R. Z. Khaliullin,  P. P. Korambath,  
 W. Kurlancheek,  A. Laurent,  A. M. Lee,  M. S. Lee,  S. V. Levchenko,  
 Ching Yeh Lin,  D. Liotard,  E. Livshits,  R. C. Lochan,  I. Lotan,  
 L. A. Martinez-Martinez,  P. E. Maslen,  N. Nair,  D. P. O'Neill,  
 D. Neuhauser,  E. Neuscamman,  C. M. Oana,  R. Olivares-Amaya,  R. Olson,  
 T. M. Perrine,  B. Peters,  P. A. Pieniazek,  A. Prociuk,  Y. M. Rhee,  
 J. Ritchie,  M. A. Rohrdanz,  E. Rosta,  N. J. Russ,  H. F. Schaefer III,  
 M. W. Schmidt,  N. E. Schultz,  S. Sharma,  N. Shenvi,  C. D. Sherrill,  
 A. C. Simmonett,  A. Sodt,  T. Stein,  D. Stuck,  K. S. Thanthiriwatte,  
 V. Vanovschi,  L. Vogt,  Tao Wang,  A. Warshel,  M. A. Watson,  
 C. F. Williams,  Q. Wu,  X. Xu,  Jun Yang,  W. Zhang,  Yan Zhao

   Please cite Q-Chem as follows:
  "Software for the frontiers of quantum chemistry:
   An overview of developments in the Q-Chem 5 package"
   J. Chem. Phys. 155, 084801 (2021)
   https://doi.org/10.1063/5.0055522 (open access)

 Q-Chem 6.3.0 for Intel X86 EM64T Linux

 Parts of Q-Chem use Armadillo 12.8.2 (Cortisol Injector).
 http://arma.sourceforge.net/

 Q-Chem begins on Tue Dec  2 23:25:14 2025  

 Host: 
0

     Scratch files written to /scratch1/hulinfen/qchem3771195//
 May2125 |scratch|qcdevops|jenkins|workspace|build_RNUM -1
 Processing $rem in /apps/generic/qchem/6.3.0/openmp/config/preferences:
 Processing $rem in /home1/hulinfen/.qchemrc:

 Checking the input file for inconsistencies... 	...done.

--------------------------------------------------------------
User input:
--------------------------------------------------------------
$molecule
0 1
N   -0.3942636   -0.4834903    0.0063799
N    0.4023725    0.4764478   -0.0088542
C   -1.8004155   -0.2921852   -0.0259223
C    1.8084686    0.2841123    0.0225151
C   -2.6364969   -1.4166405   -0.0047855
C    2.3818313   -1.0020459    0.0709514
C   -2.3750535    0.9932060   -0.0786548
C    2.6457928    1.4077422    0.0044518
C   -4.0263973   -1.2649738   -0.0356895
C    3.7721976   -1.1508838    0.1005058
C   -3.7656433    1.1403433   -0.1094710
C    4.0355951    1.2543448    0.0341784
C   -4.5905582    0.0124697   -0.0880148
C    4.5983516   -0.0239145    0.0821422
H   -2.2089250   -2.4107944    0.0356815
H    1.7591736   -1.8874307    0.0857993
H   -1.7533066    1.8791854   -0.0960576
H    2.2193874    2.4025224   -0.0327051
H   -4.6659642   -2.1380051   -0.0190981
H    4.2092366   -2.1404214    0.1376279
H   -4.2038757    2.1292167   -0.1500374
H    4.6762347    2.1266312    0.0199890
H   -5.6664247    0.1283005   -0.1119396
H    5.6740900   -0.1411327    0.1050528
$end

$rem
BASIS  =  6-31+G*
GUI  =  2
JOBTYPE  =  OPT
METHOD  =  wB97X-D
SCF_CONVERGENCE  =  8
$end
--------------------------------------------------------------
 ----------------------------------------------------------------
             Standard Nuclear Orientation (Angstroms)
    I     Atom           X                Y                Z
 ----------------------------------------------------------------
    1      N       0.4186254291     0.4611510901     0.0009853663
    2      N      -0.4189030436    -0.4634506441     0.0009803418
    3      C       1.8153983327     0.2083083266     0.0005036741
    4      C      -1.8155592233    -0.2096111207     0.0004987139
    5      C       2.6994315391     1.2956728471     0.0020146200
    6      C      -2.3327985186     1.1010195217    -0.0016476956
    7      C       2.3340181852    -1.1017485126    -0.0016437288
    8      C      -2.7008500004    -1.2959997273     0.0020107380
    9      C       4.0816826648     1.0831583469     0.0013983556
   10      C      -3.7156159312     1.3106864198    -0.0023007121
   11      C       3.7171547761    -1.3097671527    -0.0023004842
   12      C      -4.0829073272    -1.0817988012     0.0013983337
   13      C       4.5901780458    -0.2184963875    -0.0007819518
   14      C      -4.5898899459     0.2204708035    -0.0007795737
   15      H       2.3151722679     2.3081645079     0.0036681024
   16      H      -1.6723141454     1.9586838625    -0.0029074106
   17      H       1.6744610330    -1.9601274161    -0.0029020053
   18      H      -2.3178396717    -2.3089608341     0.0036632349
   19      H       4.7584870163     1.9278116648     0.0025761374
   20      H      -4.1094770773     2.3188710458    -0.0040203608
   21      H       4.1122956772    -2.3174499285    -0.0040216118
   22      H      -4.7607914391    -1.9255853493     0.0025780915
   23      H       5.6601922727    -0.3814294117    -0.0013110109
   24      H      -5.6596982146     0.3847513551    -0.0013048585
 ----------------------------------------------------------------
 Molecular Point Group                 C1    NOp =  1
 Largest Abelian Subgroup              C1    NOp =  1
 Nuclear Repulsion Energy =         744.06063085 hartrees
 There are       48 alpha and       48 beta electrons
 Requested basis set is 6-31+G(d)
 There are 90 shells and 286 basis functions

 Total QAlloc Memory Limit   8000 MB
 Mega-Array Size       188 MB
 MEM_STATIC part       192 MB

 -----------------------------------------------------------------------
                STARTING GEOMETRY OPTIMIZER USING LIBOPT3
                by Peter F. McLaughlin, Yu Zhang, Evgeny Epifanovsky
 -----------------------------------------------------------------------

              Initial Energy and Gradient Calculation
   -- Checking Topology for Ill-Behaving Coordinates --

 -------------------------------------------
   Coordinate       |  Removed | Additions 
 -------------------------------------------
	Bonds                     0          0
	Angles                    0          0
	Torsions                  0          0
	Co-Linear Type5s          0          0
	Co-Linear Type6s          0          0
 -------------------------------------------
     Done Checking Topology
 ----------------------------------------------------------------
             Standard Nuclear Orientation (Angstroms)
    I     Atom           X                Y                Z
 ----------------------------------------------------------------
    1      N       0.4186254291     0.4611510901     0.0009853663
    2      N      -0.4189030436    -0.4634506441     0.0009803418
    3      C       1.8153983327     0.2083083266     0.0005036741
    4      C      -1.8155592233    -0.2096111207     0.0004987139
    5      C       2.6994315391     1.2956728471     0.0020146200
    6      C      -2.3327985186     1.1010195217    -0.0016476956
    7      C       2.3340181852    -1.1017485126    -0.0016437288
    8      C      -2.7008500004    -1.2959997273     0.0020107380
    9      C       4.0816826648     1.0831583469     0.0013983556
   10      C      -3.7156159312     1.3106864198    -0.0023007121
   11      C       3.7171547761    -1.3097671527    -0.0023004842
   12      C      -4.0829073272    -1.0817988012     0.0013983337
   13      C       4.5901780458    -0.2184963875    -0.0007819518
   14      C      -4.5898899459     0.2204708035    -0.0007795737
   15      H       2.3151722679     2.3081645079     0.0036681024
   16      H      -1.6723141454     1.9586838625    -0.0029074106
   17      H       1.6744610330    -1.9601274161    -0.0029020053
   18      H      -2.3178396717    -2.3089608341     0.0036632349
   19      H       4.7584870163     1.9278116648     0.0025761374
   20      H      -4.1094770773     2.3188710458    -0.0040203608
   21      H       4.1122956772    -2.3174499285    -0.0040216118
   22      H      -4.7607914391    -1.9255853493     0.0025780915
   23      H       5.6601922727    -0.3814294117    -0.0013110109
   24      H      -5.6596982146     0.3847513551    -0.0013048585
 ----------------------------------------------------------------
 Molecular Point Group                 C1    NOp =  1
 Largest Abelian Subgroup              C1    NOp =  1
 Nuclear Repulsion Energy =         744.06063085 hartrees
 There are       48 alpha and       48 beta electrons
 Requested basis set is 6-31+G(d)
 There are 90 shells and 286 basis functions
 A cutoff of  1.0D-12 yielded   3215 shell pairs
 There are     34813 function pairs
 Smallest overlap matrix eigenvalue = 2.48E-06

 Scale SEOQF with 1.000000e-02/1.000000e-01/1.000000e-01

 Standard Electronic Orientation quadrupole field applied
 Nucleus-field energy     =     0.0000000113 hartrees
 Guess from superposition of atomic densities
 Warning:  Energy on first SCF cycle will be non-variational
 SAD guess density has 96.000000 electrons

 -----------------------------------------------------------------------
  General SCF calculation program by
  Eric Jon Sundstrom, Paul Horn, Yuezhi Mao, Dmitri Zuev, Alec White,
  David Stuck, Shaama M.S., Shane Yost, Joonho Lee, David Small,
  Daniel Levine, Susi Lehtola, Hugh Burton, Evgeny Epifanovsky,
  Bang C. Huynh
 -----------------------------------------------------------------------
 Exchange:     0.2220 Hartree-Fock + 1.0000 wB97X-D + LR-HF
 Correlation:  1.0000 wB97X-D
 Using SG-2 standard quadrature grid
 Dispersion:   Grimme D
 using 8 threads for integral computing
 -------------------------------------------------------
 OpenMP Integral computing Module                
 Release: version 1.0, May 2013, Q-Chem Inc. Pittsburgh 
 -------------------------------------------------------
 A restricted SCF calculation will be
 performed using DIIS
 SCF converges when DIIS error is below 1.0e-08
 User-specified cutoff of 10e-12
 used for neglect of 2-electron integrals.
 A cutoff of 10e-12
 used for neglect of overlap integrals.
 Incremental Fock algorithm is on at the start.
 ---------------------------------------
  Cycle       Energy         DIIS error
 ---------------------------------------
    1    -576.6851837792      4.26e-02  
    2    -572.4848096253      2.47e-03  
    3    -572.5342558170      1.60e-03  
    4    -572.5586370496      4.25e-04  
    5    -572.5604927361      1.78e-04  
    6    -572.5608977743      3.33e-05  
    7    -572.5609178425      1.47e-05  
    8    -572.5609213532      4.66e-06  
    9    -572.5609219621      1.15e-06  
   10    -572.5609219876      4.89e-07  
   11    -572.5609219913      1.14e-07  
   12    -572.5609219917      5.59e-08  
   13    -572.5609219917      2.55e-08  
   14    -572.5609219917      8.63e-09  Convergence criterion met
 ---------------------------------------
 SCF time:   CPU 139.04s  wall 18.00s 
 SCF   energy =  -572.56092199
 Total energy =  -572.56092199
 Integrated density by DFT XC:
   Number of electrons = 96
   Numerical integral  =    96.002237535866
   Relative error      =     0.0023307665 %
 
 --------------------------------------------------------------
 
                    Orbital Energies (a.u.)
 --------------------------------------------------------------
 
 Alpha MOs
 -- Occupied --
-14.5065 -14.5060 -10.3443 -10.3443 -10.3185 -10.3185 -10.3179 -10.3179
-10.3162 -10.3162 -10.3152 -10.3152 -10.3142 -10.3142  -1.1369  -0.9797
 -0.9623  -0.9037  -0.8582  -0.8565  -0.8491  -0.7827  -0.7204  -0.7133
 -0.7020  -0.6664  -0.6323  -0.6010  -0.5817  -0.5649  -0.5471  -0.5388
 -0.5276  -0.5239  -0.5181  -0.5153  -0.4850  -0.4717  -0.4525  -0.4487
 -0.4434  -0.4371  -0.4320  -0.3591  -0.3382  -0.3379  -0.3078  -0.2996
 -- Virtual --
 -0.0264   0.0481   0.0511   0.0621   0.0679   0.0724   0.0799   0.0862
  0.0894   0.0997   0.1018   0.1081   0.1087   0.1221   0.1226   0.1275
  0.1299   0.1303   0.1444   0.1463   0.1480   0.1569   0.1659   0.1758
  0.1801   0.1871   0.1927   0.1955   0.1976   0.1996   0.2028   0.2140
  0.2169   0.2194   0.2217   0.2269   0.2361   0.2400   0.2403   0.2466
  0.2560   0.2580   0.2610   0.2669   0.2702   0.2734   0.2773   0.2823
  0.2837   0.2888   0.2898   0.3005   0.3020   0.3072   0.3102   0.3142
  0.3210   0.3228   0.3371   0.3428   0.3437   0.3480   0.3512   0.3570
  0.3603   0.3638   0.3651   0.3765   0.3893   0.3987   0.3997   0.4161
  0.4173   0.4308   0.4338   0.4345   0.4443   0.4523   0.4747   0.4798
  0.5063   0.5391   0.5553   0.6043   0.6607   0.6724   0.6963   0.7009
  0.7339   0.7418   0.7446   0.7645   0.7730   0.7770   0.7946   0.7993
  0.8019   0.8115   0.8177   0.8264   0.8270   0.8343   0.8368   0.8421
  0.8455   0.8468   0.8713   0.8779   0.8941   0.9063   0.9099   0.9435
  0.9771   0.9906   1.0101   1.0210   1.0364   1.0379   1.0501   1.0635
  1.0672   1.0733   1.0748   1.1046   1.1160   1.1189   1.1261   1.1328
  1.1666   1.1749   1.1851   1.2006   1.2023   1.2239   1.2465   1.2576
  1.2651   1.2943   1.2980   1.3082   1.3170   1.3270   1.3736   1.3898
  1.3919   1.3975   1.4087   1.4095   1.4865   1.5023   1.5061   1.5091
  1.5122   1.5164   1.5456   1.5514   1.5591   1.5633   1.5641   1.5801
  1.5811   1.6294   1.6963   1.6978   1.8356   1.8383   1.8886   1.9245
  1.9254   1.9445   1.9499   1.9698   2.0137   2.0292   2.0508   2.0555
  2.0710   2.0905   2.0933   2.0937   2.1273   2.1871   2.1961   2.2150
  2.2252   2.2359   2.2395   2.2480   2.2501   2.2648   2.3071   2.3238
  2.3362   2.3756   2.3808   2.3808   2.4199   2.4726   2.5275   2.5759
  2.6357   2.6426   2.6598   2.6648   2.7025   2.7047   2.7185   2.7408
  2.7740   2.8051   2.8214   2.8362   2.8431   2.8611   2.8788   2.8849
  2.9495   3.0146   3.0783   3.1741   3.2835   3.3454   3.5004   3.5216
  4.2778   4.3329   4.3397   4.3456   4.3645   4.4497   4.4538   4.4756
  4.4871   4.5226   4.5882   4.5948   4.8111   4.8401
 --------------------------------------------------------------
 
          Ground-State Mulliken Net Atomic Charges

     Atom                 Charge (a.u.)
  ----------------------------------------
      1 N                    -0.064124
      2 N                    -0.064693
      3 C                    -0.702308
      4 C                    -0.701398
      5 C                     0.219630
      6 C                     0.358243
      7 C                     0.357223
      8 C                     0.218645
      9 C                    -0.375660
     10 C                    -0.434283
     11 C                    -0.432765
     12 C                    -0.375236
     13 C                    -0.104887
     14 C                    -0.104744
     15 H                     0.223953
     16 H                     0.240785
     17 H                     0.240781
     18 H                     0.223958
     19 H                     0.214219
     20 H                     0.213109
     21 H                     0.213117
     22 H                     0.214211
     23 H                     0.211118
     24 H                     0.211107
  ----------------------------------------
  Sum of atomic charges =     0.000000

 -----------------------------------------------------------------
                    Cartesian Multipole Moments
 -----------------------------------------------------------------
    Charge (ESU x 10^10)
                 0.0000
    Dipole Moment (Debye)
         X       0.0019      Y       0.0020      Z      -0.0021
       Tot       0.0034
    Quadrupole Moments (Debye-Ang)
        XX     -60.5137     XY       0.1005     YY     -72.4525
        XZ      -0.0000     YZ      -0.0000     ZZ     -87.9553
    Octopole Moments (Debye-Ang^2)
       XXX       0.0279    XXY      -0.0013    XYY       0.0049
       YYY       0.0138    XXZ      -0.0248    XYZ       0.0957
       YYZ      -0.0057    XZZ       0.0017    YZZ      -0.0021
       ZZZ       0.0066
    Hexadecapole Moments (Debye-Ang^3)
      XXXX   -4257.1157   XXXY       3.2410   XXYY    -809.5790
      XYYY       1.2940   YYYY    -556.9542   XXXZ      -0.0017
      XXYZ       0.0000   XYYZ      -0.0001   YYYZ      -0.0000
      XXZZ    -950.3941   XYZZ       0.4217   YYZZ    -133.8667
      XZZZ      -0.0000   YZZZ      -0.0000   ZZZZ    -103.3512
 -----------------------------------------------------------------
 Calculating analytic gradient of the SCF energy
 Gradient of SCF Energy
            1           2           3           4           5           6
    1   0.0283134  -0.0283090   0.0020610  -0.0020305   0.0007507   0.0112034
    2  -0.0343880   0.0343690   0.0282603  -0.0282539   0.0012203   0.0018919
    3   0.0000080   0.0000082  -0.0000043  -0.0000045   0.0000049   0.0000044
            7           8           9          10          11          12
    1  -0.0112455  -0.0007493   0.0058570  -0.0078140   0.0078360  -0.0058852
    2  -0.0019040  -0.0012619   0.0074037   0.0071246  -0.0071291  -0.0074112
    3   0.0000045   0.0000049   0.0000099  -0.0000110  -0.0000111   0.0000100
           13          14          15          16          17          18
    1   0.0049783  -0.0049609   0.0037821  -0.0044238   0.0044168  -0.0037820
    2  -0.0029072   0.0029422  -0.0010219   0.0012065  -0.0011923   0.0010310
    3  -0.0000073  -0.0000073  -0.0000010  -0.0000046  -0.0000046  -0.0000010
           19          20          21          22          23          24
    1  -0.0006156   0.0005762  -0.0005709   0.0006094  -0.0028565   0.0028591
    2  -0.0023895  -0.0025583   0.0025601   0.0023952   0.0002749  -0.0002626
    3  -0.0000047   0.0000034   0.0000034  -0.0000047   0.0000024   0.0000024
 Max gradient component =       3.439E-02
 RMS gradient           =       9.443E-03
 Gradient time:  CPU 39.51 s  wall 5.16 s

 *****************************************************
             Starting BFGS Algorithm
 *****************************************************
            LIBOPT3 RUN PARAMETERS

  Geometry Optimization Coordinates :
	Delocalized Natural Internal Coordinates

  Step Length Selection Method :
	Eigenvector Following Algorithm

  Step Length Limiter :
	Root-Mean-Square of Gradient

  Convergence Criteria :
	Max Gradient Component    	3.00000000e-04
	Max Displacement Component	1.20000000e-03
	Absolute Energy Difference	1.00000000e-06

  Initial Hessian :
	Approximate Hessian - Model Internal Coordinate

  Type of Verification :
	Verify with final updated Hessian
 *****************************************************

	OPTIMIZATION CYCLE:	1

 Scaling Magnitude of Eigenvalues
 	Minimum: -25.00000000	 Maximum: 25.00000000
 66 Hessian Eigenvalues to form next step
   0.01306111   0.01306945   0.02017077   0.02017535   0.02170243
   0.02170389   0.02195935   0.02196105   0.02239994   0.02240647
   0.02251416   0.02251592   0.02265048   0.02265521   0.02266922
   0.02267244   0.02270232   0.02270317   0.02273973   0.02274092
   0.02927510   0.16000000   0.16000000   0.16000000   0.16000000
   0.16000000   0.16000000   0.16000000   0.16000000   0.16000000
   0.16000000   0.22000000   0.22000000   0.22000000   0.22000000
   0.23477422   0.23477467   0.25000000   0.25000000   0.25000000
   0.25000000   0.35639325   0.35639734   0.35692553   0.35692677
   0.35707224   0.35707330   0.35710595   0.35710637   0.35712067
   0.35712078   0.41192124   0.41194903   0.41625672   0.41625815
   0.42530269   0.42539786   0.44877407   0.44880653   0.45663083
   0.45664930   0.45854480   0.45854953   0.46005607   0.46006784
   0.84154479

 Minimum Search taking a RFO step
 Searching for Lambda that minimizes along all modes
	Value of Lambda   -0.02077700
	Norm  of Stepsize  0.27258059
	RMS   of Stepsize  0.03355235
Back transformation initial coordinates:
    0.7911
    0.8714
    0.0019
   -0.7916
   -0.8758
    0.0019
    3.4306
    0.3936
    0.0010
   -3.4309
   -0.3961
    0.0009
    5.1012
    2.4485
    0.0038
   -4.4084
    2.0806
   -0.0031
    4.4107
   -2.0820
   -0.0031
   -5.1039
   -2.4491
    0.0038
    7.7133
    2.0469
    0.0026
   -7.0215
    2.4768
   -0.0043
    7.0244
   -2.4751
   -0.0043
   -7.7156
   -2.0443
    0.0026
    8.6742
   -0.4129
   -0.0015
   -8.6736
    0.4166
   -0.0015
    4.3750
    4.3618
    0.0069
   -3.1602
    3.7014
   -0.0055
    3.1643
   -3.7041
   -0.0055
   -4.3801
   -4.3633
    0.0069
    8.9922
    3.6430
    0.0049
   -7.7658
    4.3820
   -0.0076
    7.7711
   -4.3793
   -0.0076
   -8.9966
   -3.6388
    0.0049
   10.6962
   -0.7208
   -0.0025
  -10.6953
    0.7271
   -0.0025

	Performing Iterative Coordinate Back-Transformation

	  Starting from Previous Position

	  iter:	0	rms: 1.1782036834e-01	maxdev: 2.4355552020e-01
	  iter:	1	rms: 4.6565845712e-03	maxdev: 1.0833781866e-02
	  iter:	2	rms: 1.4329776079e-06	maxdev: 3.7680372382e-06
	  iter:	3	rms: 0.0000000000e+00	maxdev: 0.0000000000e+00	 Success!

	Finished Iterative Coordinate Back-Transformation
 ----------------------------------------------------------------
             Standard Nuclear Orientation (Angstroms)
    I     Atom           X                Y                Z
 ----------------------------------------------------------------
    1      N       0.3515822894     0.5076254451    -0.0000121487
    2      N      -0.3515190673    -0.5076500746    -0.0000176825
    3      C       1.7255247817     0.2016338166    -0.0000022855
    4      C      -1.7255129423    -0.2015547319    -0.0000071282
    5      C       2.5917656770     1.2905102838     0.0014930531
    6      C      -2.2302364444     1.1051709296    -0.0016424402
    7      C       2.2304614200    -1.1050014830    -0.0016384276
    8      C      -2.5919644853    -1.2902442407     0.0014890418
    9      C       3.9671103475     1.0794240424     0.0014070278
   10      C      -3.6043652432     1.3107726106    -0.0017811396
   11      C       3.6046373420    -1.3103229725    -0.0017801177
   12      C      -3.9672757323    -1.0788817523     0.0014064592
   13      C       4.4756479797    -0.2183228903    -0.0002515820
   14      C      -4.4755898607     0.2189419882    -0.0002500721
   15      H       2.1827511978     2.2967185644     0.0027171961
   16      H      -1.5455608255     1.9468205764    -0.0028625450
   17      H       1.5459559899    -1.9467953687    -0.0028565401
   18      H      -2.1832121018    -2.2965620775     0.0027120051
   19      H       4.6405428714     1.9307690755     0.0025977835
   20      H      -3.9994237328     2.3224077921    -0.0031013096
   21      H       3.9999321734    -2.3218637950    -0.0031010521
   22      H      -4.6408854771    -1.9300847031     0.0025992977
   23      H       5.5499575900    -0.3797070470    -0.0003839021
   24      H      -5.5498710455     0.3805205179    -0.0003791859
 ----------------------------------------------------------------
 Molecular Point Group                 C1    NOp =  1
 Largest Abelian Subgroup              C1    NOp =  1
 Nuclear Repulsion Energy =         755.95408033 hartrees
 There are       48 alpha and       48 beta electrons
 Applying Cartesian multipole field
    Component          Value
    ---------          -----
     (2,0,0)        1.00000E-12
     (0,2,0)        2.00000E-11
     (0,0,2)       -3.00000E-11
 Nucleus-field energy     = 1.1158867343e-08 hartrees
 Requested basis set is 6-31+G(d)
 There are 90 shells and 286 basis functions
 A cutoff of  1.0D-12 yielded   3247 shell pairs
 There are     35119 function pairs
 Smallest overlap matrix eigenvalue = 2.02E-06
 Guess MOs from SCF MO coefficient file

 -----------------------------------------------------------------------
  General SCF calculation program by
  Eric Jon Sundstrom, Paul Horn, Yuezhi Mao, Dmitri Zuev, Alec White,
  David Stuck, Shaama M.S., Shane Yost, Joonho Lee, David Small,
  Daniel Levine, Susi Lehtola, Hugh Burton, Evgeny Epifanovsky,
  Bang C. Huynh
 -----------------------------------------------------------------------
 Exchange:     0.2220 Hartree-Fock + 1.0000 wB97X-D + LR-HF
 Correlation:  1.0000 wB97X-D
 Using SG-2 standard quadrature grid
 Dispersion:   Grimme D
 A restricted SCF calculation will be
 performed using DIIS
 SCF converges when DIIS error is below 1.0e-08
 User-specified cutoff of 10e-12
 used for neglect of 2-electron integrals.
 A cutoff of 10e-12
 used for neglect of overlap integrals.
 Incremental Fock algorithm is on at the start.
 ---------------------------------------
  Cycle       Energy         DIIS error
 ---------------------------------------
    1    -572.5523948372      1.02e-03  
    2    -572.5661629640      1.55e-04  
    3    -572.5666873957      5.58e-05  
    4    -572.5667168844      3.21e-05  
    5    -572.5667296307      7.38e-06  
    6    -572.5667304898      2.94e-06  
    7    -572.5667306705      9.26e-07  
    8    -572.5667307068      5.81e-07  
    9    -572.5667307149      2.60e-07  
   10    -572.5667307168      1.05e-07  
   11    -572.5667307171      2.99e-08  
   12    -572.5667307171      1.16e-08  
   13    -572.5667307171      4.09e-09  Convergence criterion met
 ---------------------------------------
 SCF time:   CPU 134.91s  wall 16.00s 
 SCF   energy =  -572.56673072
 Total energy =  -572.56673072
 Integrated density by DFT XC:
   Number of electrons = 96
   Numerical integral  =    96.002160433240
   Relative error      =     0.0022504513 %
 
 --------------------------------------------------------------
 
                    Orbital Energies (a.u.)
 --------------------------------------------------------------
 
 Alpha MOs
 -- Occupied --
-14.5066 -14.5060 -10.3344 -10.3344 -10.3155 -10.3155 -10.3137 -10.3137
-10.3133 -10.3133 -10.3126 -10.3126 -10.3105 -10.3105  -1.1612  -0.9823
 -0.9627  -0.9047  -0.8583  -0.8571  -0.8452  -0.7815  -0.7195  -0.7154
 -0.6965  -0.6638  -0.6272  -0.6037  -0.5773  -0.5689  -0.5450  -0.5350
 -0.5348  -0.5199  -0.5194  -0.5147  -0.4901  -0.4724  -0.4507  -0.4464
 -0.4442  -0.4323  -0.4316  -0.3575  -0.3384  -0.3379  -0.3252  -0.3049
 -- Virtual --
 -0.0246   0.0499   0.0539   0.0665   0.0674   0.0728   0.0790   0.0866
  0.0899   0.1006   0.1024   0.1076   0.1082   0.1208   0.1231   0.1281
  0.1305   0.1306   0.1444   0.1454   0.1497   0.1577   0.1674   0.1785
  0.1820   0.1877   0.1916   0.1977   0.1980   0.1990   0.2050   0.2156
  0.2204   0.2219   0.2228   0.2296   0.2374   0.2390   0.2439   0.2485
  0.2591   0.2602   0.2644   0.2697   0.2709   0.2720   0.2788   0.2839
  0.2841   0.2910   0.3008   0.3049   0.3078   0.3083   0.3101   0.3160
  0.3225   0.3301   0.3343   0.3454   0.3462   0.3480   0.3540   0.3586
  0.3677   0.3687   0.3707   0.3764   0.3908   0.4022   0.4030   0.4199
  0.4223   0.4284   0.4366   0.4431   0.4606   0.4626   0.4849   0.4924
  0.5219   0.5426   0.5594   0.5907   0.6678   0.6685   0.7032   0.7103
  0.7348   0.7410   0.7467   0.7753   0.7779   0.7850   0.7954   0.8024
  0.8028   0.8150   0.8175   0.8265   0.8311   0.8414   0.8416   0.8426
  0.8451   0.8513   0.8849   0.8860   0.9093   0.9102   0.9238   0.9569
  0.9804   0.9911   1.0142   1.0184   1.0309   1.0375   1.0428   1.0636
  1.0669   1.0737   1.0855   1.0991   1.1167   1.1195   1.1249   1.1386
  1.1536   1.1815   1.1816   1.2032   1.2143   1.2312   1.2403   1.2648
  1.2811   1.3038   1.3163   1.3225   1.3321   1.3383   1.3713   1.3829
  1.3963   1.4081   1.4270   1.4392   1.4823   1.4997   1.5085   1.5088
  1.5153   1.5163   1.5496   1.5549   1.5651   1.5661   1.5663   1.5811
  1.5821   1.6450   1.6598   1.7069   1.8235   1.8455   1.9049   1.9393
  1.9514   1.9647   1.9663   1.9893   2.0185   2.0371   2.0551   2.0567
  2.0824   2.0897   2.1029   2.1324   2.1591   2.2014   2.2145   2.2296
  2.2356   2.2422   2.2499   2.2566   2.2812   2.2939   2.3327   2.3349
  2.3457   2.3859   2.3882   2.3887   2.4592   2.5336   2.5754   2.5987
  2.6181   2.6657   2.6677   2.6965   2.7078   2.7200   2.7332   2.7668
  2.7803   2.8181   2.8408   2.8448   2.8474   2.8751   2.8804   2.8974
  2.9793   3.0440   3.0557   3.1678   3.2448   3.3844   3.5136   3.5403
  4.2910   4.3396   4.3439   4.3488   4.3813   4.4534   4.4720   4.4805
  4.4956   4.5252   4.5931   4.6193   4.8219   4.8430
 --------------------------------------------------------------
 
          Ground-State Mulliken Net Atomic Charges

     Atom                 Charge (a.u.)
  ----------------------------------------
      1 N                    -0.036416
      2 N                    -0.036477
      3 C                    -0.783092
      4 C                    -0.782851
      5 C                     0.317612
      6 C                     0.415377
      7 C                     0.415244
      8 C                     0.317382
      9 C                    -0.409908
     10 C                    -0.502914
     11 C                    -0.502666
     12 C                    -0.409816
     13 C                    -0.098364
     14 C                    -0.098358
     15 H                     0.221826
     16 H                     0.241128
     17 H                     0.241130
     18 H                     0.221825
     19 H                     0.211673
     20 H                     0.212944
     21 H                     0.212946
     22 H                     0.211670
     23 H                     0.210053
     24 H                     0.210053
  ----------------------------------------
  Sum of atomic charges =     0.000000

 -----------------------------------------------------------------
                    Cartesian Multipole Moments
 -----------------------------------------------------------------
    Charge (ESU x 10^10)
                 0.0000
    Dipole Moment (Debye)
         X       0.0004      Y       0.0002      Z      -0.0006
       Tot       0.0008
    Quadrupole Moments (Debye-Ang)
        XX     -63.6120     XY       0.0312     YY     -72.4736
        XZ      -0.0000     YZ      -0.0000     ZZ     -87.6898
    Octopole Moments (Debye-Ang^2)
       XXX       0.0013    XXY      -0.0113    XYY      -0.0002
       YYY      -0.0321    XXZ       0.0182    XYZ       0.0746
       YYZ       0.0063    XZZ      -0.0012    YZZ      -0.0140
       ZZZ       0.0318
    Hexadecapole Moments (Debye-Ang^3)
      XXXX   -4061.1084   XXXY      -1.3098   XXYY    -773.4848
      XYYY       2.3457   YYYY    -559.9453   XXXZ      -0.0013
      XXYZ      -0.0000   XYYZ      -0.0001   YYYZ      -0.0001
      XXZZ    -895.4231   XYZZ       1.1194   YYZZ    -133.7400
      XZZZ      -0.0004   YZZZ      -0.0001   ZZZZ    -102.6213
 -----------------------------------------------------------------
 Calculating analytic gradient of the SCF energy
 Gradient of SCF Energy
            1           2           3           4           5           6
    1  -0.0164889   0.0165351  -0.0118265   0.0117906  -0.0031682   0.0037718
    2  -0.0043637   0.0043701  -0.0007585   0.0007403  -0.0012212  -0.0023323
    3  -0.0000186  -0.0000185   0.0000206   0.0000206   0.0000002   0.0000057
            7           8           9          10          11          12
    1  -0.0037753   0.0031667  -0.0021799  -0.0017591   0.0017584   0.0021805
    2   0.0023354   0.0012363   0.0004310   0.0017367  -0.0017383  -0.0004277
    3   0.0000057   0.0000002  -0.0000023  -0.0000059  -0.0000059  -0.0000023
           13          14          15          16          17          18
    1  -0.0007253   0.0007234   0.0010018   0.0002067  -0.0002051  -0.0010061
    2  -0.0017561   0.0017482   0.0005641   0.0012382  -0.0012419  -0.0005664
    3  -0.0000026  -0.0000025   0.0000028  -0.0000000  -0.0000000   0.0000028
           19          20          21          22          23          24
    1  -0.0006006   0.0001085  -0.0001058   0.0005981  -0.0000500   0.0000492
    2  -0.0000978  -0.0000436   0.0000458   0.0001011  -0.0000018   0.0000021
    3  -0.0000006   0.0000002   0.0000002  -0.0000006   0.0000003   0.0000004
 Max gradient component =       1.654E-02
 RMS gradient           =       3.655E-03
 Gradient time:  CPU 39.00 s  wall 4.90 s

     Step 1	:
        Energy is -572.5667307171
                            Maximum         Tolerance       Converged?
         Gradient           4.69322701e-02	3.00000000e-04	false
         Displacement       1.37946713e-01	1.20000000e-03	false
         Energy change      5.80872533e-03	1.00000000e-06	false


	OPTIMIZATION CYCLE:	2

 Scaling Magnitude of Eigenvalues
 	Minimum: -25.00000000	 Maximum: 25.00000000
 66 Hessian Eigenvalues to form next step
   0.01306111   0.01306945   0.02017078   0.02017535   0.02170243
   0.02170389   0.02195935   0.02196105   0.02239994   0.02240647
   0.02251416   0.02251592   0.02265048   0.02265521   0.02266922
   0.02267244   0.02270232   0.02270317   0.02273973   0.02274092
   0.02927514   0.15637902   0.16000000   0.16000000   0.16000000
   0.16000000   0.16000000   0.16000000   0.16000000   0.16000000
   0.16005506   0.21812787   0.22000000   0.22000000   0.22001323
   0.23044976   0.23477446   0.23511130   0.25000000   0.25000000
   0.34577559   0.35596713   0.35639529   0.35663083   0.35692615
   0.35707274   0.35707915   0.35710447   0.35710616   0.35712072
   0.35767049   0.41124450   0.41193530   0.41625507   0.41626730
   0.42535017   0.44800513   0.44879102   0.45086960   0.45663995
   0.45743528   0.45854672   0.45928901   0.46006183   0.53090107
   0.92278427

 Minimum Search taking a RFO step
 Searching for Lambda that minimizes along all modes
	Value of Lambda   -0.00555445
	Norm  of Stepsize  0.10208450
	RMS   of Stepsize  0.01256573
Back transformation initial coordinates:
   6.6439e-01
   9.5927e-01
  -2.2958e-05
  -6.6427e-01
  -9.5932e-01
  -3.3415e-05
   3.2608e+00
   3.8103e-01
  -4.3190e-06
  -3.2607e+00
  -3.8088e-01
  -1.3470e-05
   4.8977e+00
   2.4387e+00
   2.8215e-03
  -4.2145e+00
   2.0885e+00
  -3.1038e-03
   4.2150e+00
  -2.0882e+00
  -3.0962e-03
  -4.8981e+00
  -2.4382e+00
   2.8139e-03
   7.4968e+00
   2.0398e+00
   2.6589e-03
  -6.8113e+00
   2.4770e+00
  -3.3659e-03
   6.8118e+00
  -2.4762e+00
  -3.3639e-03
  -7.4971e+00
  -2.0388e+00
   2.6578e-03
   8.4577e+00
  -4.1257e-01
  -4.7542e-04
  -8.4576e+00
   4.1374e-01
  -4.7257e-04
   4.1248e+00
   4.3402e+00
   5.1348e-03
  -2.9207e+00
   3.6790e+00
  -5.4094e-03
   2.9214e+00
  -3.6789e+00
  -5.3981e-03
  -4.1257e+00
  -4.3399e+00
   5.1249e-03
   8.7694e+00
   3.6486e+00
   4.9091e-03
  -7.5578e+00
   4.3887e+00
  -5.8606e-03
   7.5588e+00
  -4.3877e+00
  -5.8601e-03
  -8.7700e+00
  -3.6473e+00
   4.9120e-03
   1.0488e+01
  -7.1754e-01
  -7.2547e-04
  -1.0488e+01
   7.1908e-01
  -7.1656e-04

	Performing Iterative Coordinate Back-Transformation

	  Starting from Previous Position

	  iter:	0	rms: 6.2978162082e-02	maxdev: 1.4694450250e-01
	  iter:	1	rms: 1.0703710445e-03	maxdev: 2.5440709762e-03
	  iter:	2	rms: 5.2750125074e-07	maxdev: 1.1870639556e-06	 Success!

	Finished Iterative Coordinate Back-Transformation
 ----------------------------------------------------------------
             Standard Nuclear Orientation (Angstroms)
    I     Atom           X                Y                Z
 ----------------------------------------------------------------
    1      N       0.3869394618     0.4878379883     0.0000148207
    2      N      -0.3868337870    -0.4873464172     0.0000097488
    3      C       1.7722515568     0.1692292821    -0.0000611247
    4      C      -1.7722051410    -0.1688105287    -0.0000644946
    5      C       2.6319990073     1.2661479686     0.0015524687
    6      C      -2.2941910559     1.1312590810    -0.0018143274
    7      C       2.2941694225    -1.1308625622    -0.0018113779
    8      C      -2.6318958956    -1.2657506466     0.0015494684
    9      C       4.0106513648     1.0738737598     0.0015457756
   10      C      -3.6701268577     1.3169006954    -0.0018758208
   11      C       3.6700949108    -1.3165625622    -0.0018747604
   12      C      -4.0105571349    -1.0735400844     0.0015452354
   13      C       4.5319998360    -0.2166649043    -0.0001900190
   14      C      -4.5319839352     0.2169580754    -0.0001892430
   15      H       2.2056261288     2.2653032854     0.0028316265
   16      H      -1.6170792227     1.9779982113    -0.0031417941
   17      H       1.6170294025    -1.9775829836    -0.0031369450
   18      H      -2.2055194162    -2.2649073318     0.0028273609
   19      H       4.6751086270     1.9331617527     0.0028563518
   20      H      -4.0770896041     2.3242929031    -0.0032651908
   21      H       4.0770268458    -2.3239661563    -0.0032641760
   22      H      -4.6749673411    -1.9328638620     0.0028571476
   23      H       5.6082445731    -0.3678395731    -0.0002745817
   24      H      -5.6082390442     0.3680591152    -0.0002718432
 ----------------------------------------------------------------
 Molecular Point Group                 C1    NOp =  1
 Largest Abelian Subgroup              C1    NOp =  1
 Nuclear Repulsion Energy =         750.46768056 hartrees
 There are       48 alpha and       48 beta electrons
 Applying Cartesian multipole field
    Component          Value
    ---------          -----
     (2,0,0)        1.00000E-12
     (0,2,0)        2.00000E-11
     (0,0,2)       -3.00000E-11
 Nucleus-field energy     = 1.1226720329e-08 hartrees
 Requested basis set is 6-31+G(d)
 There are 90 shells and 286 basis functions
 A cutoff of  1.0D-12 yielded   3223 shell pairs
 There are     34833 function pairs
 Smallest overlap matrix eigenvalue = 2.21E-06
 Guess MOs from SCF MO coefficient file

 -----------------------------------------------------------------------
  General SCF calculation program by
  Eric Jon Sundstrom, Paul Horn, Yuezhi Mao, Dmitri Zuev, Alec White,
  David Stuck, Shaama M.S., Shane Yost, Joonho Lee, David Small,
  Daniel Levine, Susi Lehtola, Hugh Burton, Evgeny Epifanovsky,
  Bang C. Huynh
 -----------------------------------------------------------------------
 Exchange:     0.2220 Hartree-Fock + 1.0000 wB97X-D + LR-HF
 Correlation:  1.0000 wB97X-D
 Using SG-2 standard quadrature grid
 Dispersion:   Grimme D
 A restricted SCF calculation will be
 performed using DIIS
 SCF converges when DIIS error is below 1.0e-08
 User-specified cutoff of 10e-12
 used for neglect of 2-electron integrals.
 A cutoff of 10e-12
 used for neglect of overlap integrals.
 Incremental Fock algorithm is on at the start.
 ---------------------------------------
  Cycle       Energy         DIIS error
 ---------------------------------------
    1    -572.5649143686      5.76e-04  
    2    -572.5689436304      9.83e-05  
    3    -572.5690825924      6.44e-05  
    4    -572.5691253589      1.64e-05  
    5    -572.5691288940      3.96e-06  
    6    -572.5691290844      1.58e-06  
    7    -572.5691291200      3.85e-07  
    8    -572.5691291233      1.94e-07  
    9    -572.5691291240      7.01e-08  
   10    -572.5691291241      4.18e-08  
   11    -572.5691291241      1.45e-08  
   12    -572.5691291241      5.64e-09  Convergence criterion met
 ---------------------------------------
 SCF time:   CPU 122.28s  wall 15.00s 
 SCF   energy =  -572.56912912
 Total energy =  -572.56912912
 Integrated density by DFT XC:
   Number of electrons = 96
   Numerical integral  =    96.002207556201
   Relative error      =     0.0022995377 %
 
 --------------------------------------------------------------
 
                    Orbital Energies (a.u.)
 --------------------------------------------------------------
 
 Alpha MOs
 -- Occupied --
-14.5081 -14.5076 -10.3378 -10.3378 -10.3165 -10.3165 -10.3146 -10.3146
-10.3142 -10.3142 -10.3135 -10.3135 -10.3125 -10.3125  -1.1479  -0.9817
 -0.9640  -0.9033  -0.8586  -0.8576  -0.8480  -0.7810  -0.7199  -0.7143
 -0.6985  -0.6646  -0.6287  -0.6017  -0.5777  -0.5672  -0.5458  -0.5356
 -0.5285  -0.5214  -0.5190  -0.5157  -0.4898  -0.4729  -0.4512  -0.4495
 -0.4446  -0.4325  -0.4323  -0.3579  -0.3391  -0.3386  -0.3182  -0.3070
 -- Virtual --
 -0.0245   0.0496   0.0533   0.0647   0.0676   0.0726   0.0795   0.0864
  0.0898   0.1004   0.1022   0.1067   0.1084   0.1213   0.1228   0.1275
  0.1302   0.1304   0.1444   0.1459   0.1495   0.1574   0.1665   0.1770
  0.1811   0.1875   0.1921   0.1968   0.1988   0.1992   0.2039   0.2140
  0.2191   0.2204   0.2221   0.2278   0.2371   0.2384   0.2428   0.2474
  0.2571   0.2586   0.2624   0.2698   0.2714   0.2716   0.2775   0.2826
  0.2840   0.2889   0.2997   0.3036   0.3058   0.3073   0.3099   0.3141
  0.3210   0.3271   0.3343   0.3449   0.3455   0.3467   0.3519   0.3583
  0.3631   0.3648   0.3680   0.3787   0.3916   0.3990   0.4019   0.4181
  0.4197   0.4304   0.4362   0.4404   0.4518   0.4614   0.4824   0.4837
  0.5160   0.5392   0.5560   0.5985   0.6658   0.6678   0.7040   0.7083
  0.7342   0.7383   0.7455   0.7731   0.7755   0.7815   0.7945   0.8004
  0.8019   0.8136   0.8177   0.8262   0.8282   0.8387   0.8390   0.8423
  0.8448   0.8490   0.8805   0.8821   0.9064   0.9068   0.9112   0.9441
  0.9791   0.9904   1.0129   1.0174   1.0347   1.0364   1.0442   1.0656
  1.0695   1.0741   1.0829   1.0986   1.1163   1.1199   1.1234   1.1367
  1.1591   1.1797   1.1801   1.2021   1.2079   1.2303   1.2483   1.2641
  1.2737   1.3037   1.3080   1.3114   1.3160   1.3303   1.3708   1.3925
  1.3930   1.4050   1.4131   1.4273   1.4943   1.4962   1.5079   1.5089
  1.5105   1.5108   1.5487   1.5542   1.5615   1.5644   1.5651   1.5808
  1.5815   1.6392   1.6684   1.6878   1.8270   1.8442   1.8991   1.9301
  1.9401   1.9545   1.9625   1.9818   2.0170   2.0321   2.0524   2.0530
  2.0782   2.0899   2.0980   2.1114   2.1504   2.2004   2.2095   2.2272
  2.2338   2.2410   2.2522   2.2532   2.2683   2.2860   2.3196   2.3307
  2.3431   2.3827   2.3885   2.3887   2.4414   2.5033   2.5530   2.5857
  2.6213   2.6597   2.6613   2.6855   2.7071   2.7109   2.7319   2.7478
  2.7793   2.8205   2.8388   2.8417   2.8501   2.8702   2.8710   2.8916
  2.9630   3.0427   3.0504   3.1669   3.2462   3.3803   3.5154   3.5322
  4.2897   4.3373   4.3425   4.3466   4.3708   4.4512   4.4650   4.4856
  4.4903   4.5123   4.5869   4.6085   4.8151   4.8476
 --------------------------------------------------------------
 
          Ground-State Mulliken Net Atomic Charges

     Atom                 Charge (a.u.)
  ----------------------------------------
      1 N                    -0.043821
      2 N                    -0.043726
      3 C                    -0.773571
      4 C                    -0.773616
      5 C                     0.297307
      6 C                     0.401518
      7 C                     0.401640
      8 C                     0.297385
      9 C                    -0.404667
     10 C                    -0.474121
     11 C                    -0.474219
     12 C                    -0.404676
     13 C                    -0.103255
     14 C                    -0.103261
     15 H                     0.223184
     16 H                     0.240571
     17 H                     0.240574
     18 H                     0.223183
     19 H                     0.212869
     20 H                     0.212993
     21 H                     0.212993
     22 H                     0.212867
     23 H                     0.210923
     24 H                     0.210925
  ----------------------------------------
  Sum of atomic charges =     0.000000

 -----------------------------------------------------------------
                    Cartesian Multipole Moments
 -----------------------------------------------------------------
    Charge (ESU x 10^10)
                 0.0000
    Dipole Moment (Debye)
         X      -0.0000      Y      -0.0001      Z      -0.0007
       Tot       0.0007
    Quadrupole Moments (Debye-Ang)
        XX     -62.3239     XY      -0.0795     YY     -72.5927
        XZ      -0.0000     YZ      -0.0000     ZZ     -87.7694
    Octopole Moments (Debye-Ang^2)
       XXX      -0.0051    XXY      -0.0123    XYY      -0.0017
       YYY      -0.0420    XXZ       0.0240    XYZ       0.0812
       YYZ       0.0053    XZZ      -0.0018    YZZ      -0.0165
       ZZZ       0.0329
    Hexadecapole Moments (Debye-Ang^3)
      XXXX   -4157.7629   XXXY       8.9755   XXYY    -792.5719
      XYYY      10.3721   YYYY    -558.5995   XXXZ      -0.0009
      XXYZ      -0.0000   XYYZ      -0.0001   YYYZ      -0.0001
      XXZZ    -921.0963   XYZZ       4.6866   YYZZ    -133.4396
      XZZZ      -0.0005   YZZZ      -0.0000   ZZZZ    -102.7213
 -----------------------------------------------------------------
 Calculating analytic gradient of the SCF energy
 Gradient of SCF Energy
            1           2           3           4           5           6
    1   0.0020891  -0.0020538  -0.0004302   0.0003971  -0.0005637  -0.0013205
    2  -0.0030568   0.0030606   0.0018162  -0.0018321  -0.0017139  -0.0000297
    3  -0.0000036  -0.0000036   0.0000065   0.0000065  -0.0000029  -0.0000012
            7           8           9          10          11          12
    1   0.0013195   0.0005684  -0.0006397   0.0001391  -0.0001406   0.0006420
    2   0.0000347   0.0017296  -0.0007289  -0.0001685   0.0001687   0.0007334
    3  -0.0000012  -0.0000029  -0.0000020  -0.0000008  -0.0000007  -0.0000020
           13          14          15          16          17          18
    1  -0.0005094   0.0005060   0.0003552  -0.0004042   0.0004036  -0.0003582
    2   0.0000321  -0.0000391   0.0004218  -0.0001517   0.0001483  -0.0004249
    3   0.0000009   0.0000009   0.0000020   0.0000003   0.0000003   0.0000020
           19          20          21          22          23          24
    1   0.0000541   0.0000392  -0.0000380  -0.0000542   0.0003518  -0.0003524
    2   0.0001293   0.0001826  -0.0001814  -0.0001285   0.0001702  -0.0001721
    3   0.0000009  -0.0000000  -0.0000000   0.0000009  -0.0000001  -0.0000001
 Max gradient component =       3.061E-03
 RMS gradient           =       8.186E-04
 Gradient time:  CPU 38.37 s  wall 4.82 s

     Step 2	:
        Energy is -572.5691291241
                            Maximum         Tolerance       Converged?
         Gradient           4.74407108e-03	3.00000000e-04	false
         Displacement       8.44118889e-02	1.20000000e-03	false
         Energy change      2.39840705e-03	1.00000000e-06	false


	OPTIMIZATION CYCLE:	3

 Scaling Magnitude of Eigenvalues
 	Minimum: -25.00000000	 Maximum: 25.00000000
 66 Hessian Eigenvalues to form next step
   0.01306112   0.01306946   0.02017078   0.02017535   0.02170243
   0.02170389   0.02195935   0.02196105   0.02239994   0.02240647
   0.02251416   0.02251592   0.02265048   0.02265521   0.02266922
   0.02267244   0.02270232   0.02270317   0.02273973   0.02274092
   0.02927514   0.15531990   0.15997676   0.16000000   0.16000000
   0.16000000   0.16000000   0.16000000   0.16000000   0.16000000
   0.16002684   0.21752631   0.21997838   0.22000000   0.22000000
   0.23211400   0.23477447   0.23556451   0.24999997   0.25000000
   0.35525641   0.35624488   0.35639531   0.35663082   0.35692615
   0.35707275   0.35708210   0.35710615   0.35710756   0.35712072
   0.36820592   0.41048870   0.41193524   0.41623697   0.41625799
   0.42535014   0.44788872   0.44879085   0.45401953   0.45663984
   0.45721779   0.45854695   0.45943235   0.46006182   0.56056217
   0.90983860

 Minimum Search taking a RFO step
 Searching for Lambda that minimizes along all modes
	Value of Lambda   -0.00012548
	Norm  of Stepsize  0.01878892
	RMS   of Stepsize  0.00231276
Back transformation initial coordinates:
   7.3121e-01
   9.2188e-01
   2.8007e-05
  -7.3101e-01
  -9.2095e-01
   1.8422e-05
   3.3491e+00
   3.1980e-01
  -1.1551e-04
  -3.3490e+00
  -3.1901e-01
  -1.2188e-04
   4.9738e+00
   2.3927e+00
   2.9337e-03
  -4.3354e+00
   2.1378e+00
  -3.4286e-03
   4.3354e+00
  -2.1370e+00
  -3.4230e-03
  -4.9736e+00
  -2.3919e+00
   2.9281e-03
   7.5790e+00
   2.0293e+00
   2.9211e-03
  -6.9355e+00
   2.4886e+00
  -3.5448e-03
   6.9355e+00
  -2.4879e+00
  -3.5428e-03
  -7.5789e+00
  -2.0287e+00
   2.9201e-03
   8.5642e+00
  -4.0944e-01
  -3.5908e-04
  -8.5642e+00
   4.0999e-01
  -3.5762e-04
   4.1680e+00
   4.2808e+00
   5.3510e-03
  -3.0558e+00
   3.7379e+00
  -5.9371e-03
   3.0557e+00
  -3.7371e+00
  -5.9280e-03
  -4.1678e+00
  -4.2801e+00
   5.3429e-03
   8.8347e+00
   3.6531e+00
   5.3977e-03
  -7.7046e+00
   4.3923e+00
  -6.1703e-03
   7.7045e+00
  -4.3917e+00
  -6.1684e-03
  -8.8344e+00
  -3.6526e+00
   5.3992e-03
   1.0598e+01
  -6.9512e-01
  -5.1888e-04
  -1.0598e+01
   6.9553e-01
  -5.1371e-04

	Performing Iterative Coordinate Back-Transformation

	  Starting from Previous Position

	  iter:	0	rms: 8.1433837117e-03	maxdev: 2.2288228866e-02
	  iter:	1	rms: 2.9910879825e-05	maxdev: 7.4363412061e-05
	  iter:	2	rms: 0.0000000000e+00	maxdev: 0.0000000000e+00	 Success!

	Finished Iterative Coordinate Back-Transformation
 ----------------------------------------------------------------
             Standard Nuclear Orientation (Angstroms)
    I     Atom           X                Y                Z
 ----------------------------------------------------------------
    1      N       0.3826677317     0.4917260853     0.0002093946
    2      N      -0.3826667947    -0.4915396146     0.0002062977
    3      C       1.7694361416     0.1748579753     0.0000338831
    4      C      -1.7694183863    -0.1745927909     0.0000322025
    5      C       2.6315738477     1.2720625388     0.0012416057
    6      C      -2.2860535215     1.1268402911    -0.0014051846
    7      C       2.2861650534    -1.1265375798    -0.0014036225
    8      C      -2.6316195437    -1.2717392621     0.0012400625
    9      C       4.0105981452     1.0770195072     0.0011328639
   10      C      -3.6620275289     1.3146300498    -0.0015566718
   11      C       3.6621548878    -1.3142287591    -0.0015559146
   12      C      -4.0106325618    -1.0765964475     0.0011325591
   13      C       4.5272159541    -0.2160957422    -0.0002873097
   14      C      -4.5271636659     0.2165533139    -0.0002872703
   15      H       2.2039091480     2.2702417117     0.0022589184
   16      H      -1.6052708545     1.9711928425    -0.0024075141
   17      H       1.6054480443    -1.9709413921    -0.0024052443
   18      H      -2.2040377189    -2.2699543792     0.0022565008
   19      H       4.6778692749     1.9338792844     0.0021044496
   20      H      -4.0673283841     2.3224742815    -0.0026996689
   21      H       4.0675308309    -2.3220428420    -0.0026987611
   22      H      -4.6779603693    -1.9334126246     0.0021045046
   23      H       5.6022896744    -0.3722356766    -0.0004462760
   24      H      -5.6022267027     0.3727637351    -0.0004454992
 ----------------------------------------------------------------
 Molecular Point Group                 C1    NOp =  1
 Largest Abelian Subgroup              C1    NOp =  1
 Nuclear Repulsion Energy =         750.66980259 hartrees
 There are       48 alpha and       48 beta electrons
 Applying Cartesian multipole field
    Component          Value
    ---------          -----
     (2,0,0)        1.00000E-12
     (0,2,0)        2.00000E-11
     (0,0,2)       -3.00000E-11
 Nucleus-field energy     = 1.1228428323e-08 hartrees
 Requested basis set is 6-31+G(d)
 There are 90 shells and 286 basis functions
 A cutoff of  1.0D-12 yielded   3225 shell pairs
 There are     34841 function pairs
 Smallest overlap matrix eigenvalue = 2.20E-06
 Guess MOs from SCF MO coefficient file

 -----------------------------------------------------------------------
  General SCF calculation program by
  Eric Jon Sundstrom, Paul Horn, Yuezhi Mao, Dmitri Zuev, Alec White,
  David Stuck, Shaama M.S., Shane Yost, Joonho Lee, David Small,
  Daniel Levine, Susi Lehtola, Hugh Burton, Evgeny Epifanovsky,
  Bang C. Huynh
 -----------------------------------------------------------------------
 Exchange:     0.2220 Hartree-Fock + 1.0000 wB97X-D + LR-HF
 Correlation:  1.0000 wB97X-D
 Using SG-2 standard quadrature grid
 Dispersion:   Grimme D
 A restricted SCF calculation will be
 performed using DIIS
 SCF converges when DIIS error is below 1.0e-08
 User-specified cutoff of 10e-12
 used for neglect of 2-electron integrals.
 A cutoff of 10e-12
 used for neglect of overlap integrals.
 Incremental Fock algorithm is on at the start.
 ---------------------------------------
  Cycle       Energy         DIIS error
 ---------------------------------------
    1    -572.5690531705      1.06e-04  
    2    -572.5691915253      1.63e-05  
    3    -572.5691963072      7.91e-06  
    4    -572.5691968843      3.38e-06  
    5    -572.5691970105      7.71e-07  
    6    -572.5691970179      2.74e-07  
    7    -572.5691970190      1.12e-07  
    8    -572.5691970192      5.34e-08  
    9    -572.5691970192      2.36e-08  
   10    -572.5691970193      8.64e-09  Convergence criterion met
 ---------------------------------------
 SCF time:   CPU 101.40s  wall 12.00s 
 SCF   energy =  -572.56919702
 Total energy =  -572.56919702
 Integrated density by DFT XC:
   Number of electrons = 96
   Numerical integral  =    96.002194726363
   Relative error      =     0.0022861733 %
 
 --------------------------------------------------------------
 
                    Orbital Energies (a.u.)
 --------------------------------------------------------------
 
 Alpha MOs
 -- Occupied --
-14.5084 -14.5078 -10.3377 -10.3377 -10.3165 -10.3165 -10.3146 -10.3146
-10.3144 -10.3144 -10.3138 -10.3138 -10.3123 -10.3123  -1.1479  -0.9813
 -0.9635  -0.9029  -0.8583  -0.8575  -0.8476  -0.7808  -0.7196  -0.7145
 -0.6982  -0.6643  -0.6282  -0.6021  -0.5776  -0.5671  -0.5457  -0.5355
 -0.5284  -0.5210  -0.5193  -0.5159  -0.4899  -0.4726  -0.4512  -0.4491
 -0.4444  -0.4325  -0.4324  -0.3576  -0.3391  -0.3385  -0.3194  -0.3068
 -- Virtual --
 -0.0247   0.0495   0.0532   0.0647   0.0676   0.0727   0.0795   0.0864
  0.0898   0.1004   0.1022   0.1063   0.1084   0.1213   0.1228   0.1276
  0.1302   0.1304   0.1444   0.1459   0.1495   0.1574   0.1666   0.1772
  0.1812   0.1876   0.1920   0.1969   0.1987   0.1991   0.2040   0.2140
  0.2192   0.2203   0.2220   0.2280   0.2372   0.2383   0.2429   0.2474
  0.2573   0.2586   0.2626   0.2696   0.2710   0.2716   0.2776   0.2829
  0.2838   0.2890   0.2994   0.3035   0.3059   0.3074   0.3099   0.3143
  0.3211   0.3270   0.3343   0.3449   0.3454   0.3466   0.3521   0.3582
  0.3632   0.3651   0.3676   0.3781   0.3909   0.3994   0.4016   0.4185
  0.4197   0.4300   0.4358   0.4406   0.4527   0.4611   0.4824   0.4841
  0.5152   0.5391   0.5549   0.5966   0.6655   0.6673   0.7029   0.7079
  0.7343   0.7389   0.7456   0.7730   0.7752   0.7816   0.7946   0.8006
  0.8021   0.8136   0.8177   0.8262   0.8282   0.8385   0.8387   0.8423
  0.8446   0.8492   0.8807   0.8822   0.9067   0.9082   0.9109   0.9454
  0.9788   0.9904   1.0125   1.0177   1.0344   1.0367   1.0444   1.0659
  1.0687   1.0739   1.0832   1.0985   1.1163   1.1200   1.1234   1.1371
  1.1576   1.1796   1.1799   1.2021   1.2083   1.2303   1.2467   1.2641
  1.2738   1.3031   1.3095   1.3151   1.3162   1.3304   1.3703   1.3920
  1.3931   1.4059   1.4142   1.4278   1.4923   1.4962   1.5081   1.5089
  1.5108   1.5108   1.5483   1.5538   1.5616   1.5644   1.5651   1.5806
  1.5812   1.6396   1.6665   1.6885   1.8253   1.8434   1.8994   1.9307
  1.9397   1.9548   1.9611   1.9825   2.0169   2.0313   2.0526   2.0533
  2.0779   2.0901   2.0979   2.1122   2.1499   2.2000   2.2087   2.2275
  2.2339   2.2398   2.2502   2.2525   2.2686   2.2859   2.3199   2.3299
  2.3436   2.3825   2.3875   2.3881   2.4416   2.5055   2.5532   2.5841
  2.6191   2.6591   2.6596   2.6864   2.7071   2.7115   2.7307   2.7490
  2.7769   2.8191   2.8382   2.8403   2.8481   2.8694   2.8711   2.8920
  2.9632   3.0418   3.0505   3.1647   3.2436   3.3755   3.5132   3.5306
  4.2872   4.3371   4.3421   4.3467   4.3715   4.4507   4.4650   4.4852
  4.4905   4.5109   4.5867   4.6094   4.8150   4.8459
 --------------------------------------------------------------
 
          Ground-State Mulliken Net Atomic Charges

     Atom                 Charge (a.u.)
  ----------------------------------------
      1 N                    -0.042051
      2 N                    -0.042109
      3 C                    -0.774395
      4 C                    -0.774335
      5 C                     0.296329
      6 C                     0.405210
      7 C                     0.405126
      8 C                     0.296271
      9 C                    -0.404865
     10 C                    -0.478400
     11 C                    -0.478277
     12 C                    -0.404831
     13 C                    -0.102708
     14 C                    -0.102710
     15 H                     0.223014
     16 H                     0.241149
     17 H                     0.241147
     18 H                     0.223016
     19 H                     0.213112
     20 H                     0.212808
     21 H                     0.212808
     22 H                     0.213111
     23 H                     0.210790
     24 H                     0.210789
  ----------------------------------------
  Sum of atomic charges =     0.000000

 -----------------------------------------------------------------
                    Cartesian Multipole Moments
 -----------------------------------------------------------------
    Charge (ESU x 10^10)
                 0.0000
    Dipole Moment (Debye)
         X       0.0001      Y       0.0001      Z      -0.0009
       Tot       0.0009
    Quadrupole Moments (Debye-Ang)
        XX     -62.4325     XY      -0.0379     YY     -72.5904
        XZ      -0.0000     YZ      -0.0000     ZZ     -87.7882
    Octopole Moments (Debye-Ang^2)
       XXX      -0.0004    XXY      -0.0108    XYY      -0.0011
       YYY      -0.0364    XXZ       0.0098    XYZ       0.0640
       YYZ       0.0032    XZZ      -0.0014    YZZ      -0.0151
       ZZZ       0.0279
    Hexadecapole Moments (Debye-Ang^3)
      XXXX   -4149.7152   XXXY       7.1762   XXYY    -791.1574
      XYYY       8.1773   YYYY    -559.3669   XXXZ      -0.0004
      XXYZ      -0.0000   XYYZ      -0.0000   YYYZ      -0.0000
      XXZZ    -919.3014   XYZZ       3.6748   YYZZ    -133.5673
      XZZZ      -0.0003   YZZZ      -0.0000   ZZZZ    -102.7731
 -----------------------------------------------------------------
 Calculating analytic gradient of the SCF energy
 Gradient of SCF Energy
            1           2           3           4           5           6
    1   0.0005694  -0.0005767  -0.0005853   0.0005840  -0.0000604  -0.0002648
    2  -0.0004530   0.0004480   0.0002518  -0.0002492  -0.0000866  -0.0000323
    3   0.0000047   0.0000046  -0.0000033  -0.0000032  -0.0000003  -0.0000022
            7           8           9          10          11          12
    1   0.0002650   0.0000672   0.0002481   0.0001879  -0.0001869  -0.0002481
    2   0.0000317   0.0000877  -0.0000600   0.0001379  -0.0001362   0.0000607
    3  -0.0000022  -0.0000003   0.0000015   0.0000006   0.0000006   0.0000015
           13          14          15          16          17          18
    1   0.0001629  -0.0001636   0.0001643   0.0000447  -0.0000435  -0.0001657
    2   0.0001050  -0.0001051   0.0000391   0.0000758  -0.0000747  -0.0000402
    3  -0.0000001  -0.0000002  -0.0000004   0.0000000   0.0000000  -0.0000004
           19          20          21          22          23          24
    1   0.0000404   0.0001067  -0.0001060  -0.0000401   0.0000124  -0.0000122
    2   0.0000205   0.0000369  -0.0000367  -0.0000210   0.0000591  -0.0000592
    3   0.0000000  -0.0000002  -0.0000001   0.0000000  -0.0000003  -0.0000003
 Max gradient component =       5.853E-04
 RMS gradient           =       1.849E-04
 Gradient time:  CPU 38.34 s  wall 4.81 s

     Step 3	:
        Energy is -572.5691970193
                            Maximum         Tolerance       Converged?
         Gradient           5.78854843e-04	3.00000000e-04	false
         Displacement       1.00159802e-02	1.20000000e-03	false
         Energy change      6.78951354e-05	1.00000000e-06	false


	OPTIMIZATION CYCLE:	4

 Scaling Magnitude of Eigenvalues
 	Minimum: -25.00000000	 Maximum: 25.00000000
 66 Hessian Eigenvalues to form next step
   0.01306077   0.01306914   0.02017077   0.02017534   0.02170244
   0.02170390   0.02195935   0.02196105   0.02239995   0.02240648
   0.02251416   0.02251592   0.02265048   0.02265521   0.02266922
   0.02267244   0.02270232   0.02270318   0.02273973   0.02274092
   0.02927607   0.14759054   0.15861474   0.16000000   0.16000000
   0.16000000   0.16000000   0.16000000   0.16000000   0.16002443
   0.16013241   0.21585475   0.21959479   0.22000000   0.22000012
   0.22899787   0.23477409   0.24364187   0.24999978   0.25001078
   0.33775087   0.35598273   0.35639528   0.35661127   0.35692614
   0.35701773   0.35707277   0.35710616   0.35712072   0.35715961
   0.36002038   0.40993297   0.41193526   0.41625718   0.41985761
   0.42535227   0.44780668   0.44879090   0.45418669   0.45663982
   0.45767863   0.45854768   0.46006179   0.48162008   0.55287719
   0.90519268

 Minimum Search taking a RFO step
 Searching for Lambda that minimizes along all modes
	Value of Lambda   -0.00000599
	Norm  of Stepsize  0.00526202
	RMS   of Stepsize  0.00064771
Back transformation initial coordinates:
   7.2314e-01
   9.2923e-01
   3.9570e-04
  -7.2314e-01
  -9.2888e-01
   3.8985e-04
   3.3437e+00
   3.3043e-01
   6.4030e-05
  -3.3437e+00
  -3.2993e-01
   6.0854e-05
   4.9730e+00
   2.4038e+00
   2.3463e-03
  -4.3200e+00
   2.1294e+00
  -2.6554e-03
   4.3202e+00
  -2.1288e+00
  -2.6525e-03
  -4.9730e+00
  -2.4032e+00
   2.3434e-03
   7.5789e+00
   2.0353e+00
   2.1408e-03
  -6.9202e+00
   2.4843e+00
  -2.9417e-03
   6.9205e+00
  -2.4835e+00
  -2.9403e-03
  -7.5790e+00
  -2.0345e+00
   2.1402e-03
   8.5552e+00
  -4.0836e-01
  -5.4294e-04
  -8.5551e+00
   4.0923e-01
  -5.4286e-04
   4.1648e+00
   4.2901e+00
   4.2687e-03
  -3.0335e+00
   3.7250e+00
  -4.5495e-03
   3.0339e+00
  -3.7245e+00
  -4.5453e-03
  -4.1650e+00
  -4.2896e+00
   4.2642e-03
   8.8399e+00
   3.6545e+00
   3.9768e-03
  -7.6861e+00
   4.3888e+00
  -5.1016e-03
   7.6865e+00
  -4.3880e+00
  -5.0999e-03
  -8.8401e+00
  -3.6536e+00
   3.9769e-03
   1.0587e+01
  -7.0342e-01
  -8.4334e-04
  -1.0587e+01
   7.0442e-01
  -8.4187e-04

	Performing Iterative Coordinate Back-Transformation

	  Starting from Previous Position

	  iter:	0	rms: 1.5714301694e-03	maxdev: 5.5164858448e-03
	  iter:	1	rms: 1.0181784846e-06	maxdev: 3.8645549252e-06
	  iter:	2	rms: 0.0000000000e+00	maxdev: 0.0000000000e+00	 Success!

	Finished Iterative Coordinate Back-Transformation
 ----------------------------------------------------------------
             Standard Nuclear Orientation (Angstroms)
    I     Atom           X                Y                Z
 ----------------------------------------------------------------
    1      N       0.3821958741     0.4922960701    -0.0003959941
    2      N      -0.3821243933    -0.4918052093    -0.0003982832
    3      C       1.7692016161     0.1744732318    -0.0002476096
    4      C      -1.7691520188    -0.1740434239    -0.0002491424
    5      C       2.6305255022     1.2719911491     0.0007161074
    6      C      -2.2852856489     1.1274566116    -0.0011396098
    7      C       2.2852664859    -1.1270528675    -0.0011382049
    8      C      -2.6304221597    -1.2716030386     0.0007147111
    9      C       4.0093022588     1.0770146948     0.0008769548
   10      C      -3.6613992990     1.3148127627    -0.0010111653
   11      C       3.6613705092    -1.3144805576    -0.0010103603
   12      C      -4.0092110359    -1.0766973608     0.0008764185
   13      C       4.5258692973    -0.2162401031     0.0000022749
   14      C      -4.5258440076     0.2165289784     0.0000020407
   15      H       2.2012678698     2.2694968814     0.0013248165
   16      H      -1.6043939939     1.9715718408    -0.0019483917
   17      H       1.6043318368    -1.9711349656    -0.0019465471
   18      H      -2.2011182384    -2.2690883981     0.0013229658
   19      H       4.6766114653     1.9337368228     0.0016518455
   20      H      -4.0677802572     2.3222611118    -0.0017259342
   21      H       4.0677000619    -2.3219496993    -0.0017250845
   22      H      -4.6764762583    -1.9334538671     0.0016516741
   23      H       5.6008478280    -0.3729653253     0.0000752641
   24      H      -5.6008305929     0.3731991669     0.0000755594
 ----------------------------------------------------------------
 Molecular Point Group                 C1    NOp =  1
 Largest Abelian Subgroup              C1    NOp =  1
 Nuclear Repulsion Energy =         750.76997957 hartrees
 There are       48 alpha and       48 beta electrons
 Applying Cartesian multipole field
    Component          Value
    ---------          -----
     (2,0,0)        1.00000E-12
     (0,2,0)        2.00000E-11
     (0,0,2)       -3.00000E-11
 Nucleus-field energy     = 1.1227768193e-08 hartrees
 Requested basis set is 6-31+G(d)
 There are 90 shells and 286 basis functions
 A cutoff of  1.0D-12 yielded   3225 shell pairs
 There are     34841 function pairs
 Smallest overlap matrix eigenvalue = 2.20E-06
 Guess MOs from SCF MO coefficient file

 -----------------------------------------------------------------------
  General SCF calculation program by
  Eric Jon Sundstrom, Paul Horn, Yuezhi Mao, Dmitri Zuev, Alec White,
  David Stuck, Shaama M.S., Shane Yost, Joonho Lee, David Small,
  Daniel Levine, Susi Lehtola, Hugh Burton, Evgeny Epifanovsky,
  Bang C. Huynh
 -----------------------------------------------------------------------
 Exchange:     0.2220 Hartree-Fock + 1.0000 wB97X-D + LR-HF
 Correlation:  1.0000 wB97X-D
 Using SG-2 standard quadrature grid
 Dispersion:   Grimme D
 A restricted SCF calculation will be
 performed using DIIS
 SCF converges when DIIS error is below 1.0e-08
 User-specified cutoff of 10e-12
 used for neglect of 2-electron integrals.
 A cutoff of 10e-12
 used for neglect of overlap integrals.
 Incremental Fock algorithm is on at the start.
 ---------------------------------------
  Cycle       Energy         DIIS error
 ---------------------------------------
    1    -572.5691955346      1.83e-05  
    2    -572.5691997344      4.11e-06  
    3    -572.5691998827      3.47e-06  
    4    -572.5692000057      5.49e-07  
    5    -572.5692000109      2.61e-07  
    6    -572.5692000118      8.66e-08  
    7    -572.5692000119      4.29e-08  
    8    -572.5692000120      1.87e-08  
    9    -572.5692000119      5.92e-09  Convergence criterion met
 ---------------------------------------
 SCF time:   CPU 90.11s  wall 11.00s 
 SCF   energy =  -572.56920001
 Total energy =  -572.56920001
 Integrated density by DFT XC:
   Number of electrons = 96
   Numerical integral  =    96.002187357325
   Relative error      =     0.0022784972 %
 
 --------------------------------------------------------------
 
                    Orbital Energies (a.u.)
 --------------------------------------------------------------
 
 Alpha MOs
 -- Occupied --
-14.5084 -14.5079 -10.3376 -10.3376 -10.3165 -10.3165 -10.3146 -10.3146
-10.3144 -10.3144 -10.3138 -10.3138 -10.3123 -10.3123  -1.1479  -0.9813
 -0.9636  -0.9028  -0.8584  -0.8575  -0.8475  -0.7807  -0.7197  -0.7145
 -0.6981  -0.6643  -0.6282  -0.6021  -0.5775  -0.5671  -0.5458  -0.5355
 -0.5284  -0.5208  -0.5193  -0.5160  -0.4900  -0.4726  -0.4512  -0.4491
 -0.4444  -0.4325  -0.4324  -0.3575  -0.3391  -0.3386  -0.3196  -0.3068
 -- Virtual --
 -0.0246   0.0495   0.0532   0.0648   0.0676   0.0727   0.0795   0.0864
  0.0898   0.1004   0.1022   0.1063   0.1084   0.1213   0.1228   0.1276
  0.1302   0.1304   0.1444   0.1459   0.1495   0.1574   0.1666   0.1772
  0.1812   0.1876   0.1920   0.1969   0.1988   0.1991   0.2041   0.2140
  0.2192   0.2203   0.2220   0.2280   0.2372   0.2383   0.2429   0.2475
  0.2573   0.2586   0.2626   0.2696   0.2710   0.2716   0.2777   0.2828
  0.2838   0.2890   0.2995   0.3036   0.3059   0.3073   0.3099   0.3144
  0.3211   0.3271   0.3343   0.3449   0.3454   0.3466   0.3521   0.3581
  0.3634   0.3651   0.3677   0.3781   0.3908   0.3994   0.4017   0.4185
  0.4197   0.4300   0.4359   0.4406   0.4528   0.4613   0.4824   0.4842
  0.5154   0.5391   0.5549   0.5965   0.6656   0.6672   0.7030   0.7079
  0.7343   0.7389   0.7456   0.7732   0.7751   0.7817   0.7946   0.8006
  0.8021   0.8136   0.8177   0.8262   0.8283   0.8386   0.8387   0.8423
  0.8446   0.8492   0.8808   0.8822   0.9067   0.9083   0.9108   0.9454
  0.9789   0.9905   1.0126   1.0177   1.0345   1.0367   1.0443   1.0660
  1.0688   1.0739   1.0834   1.0984   1.1163   1.1200   1.1234   1.1372
  1.1574   1.1796   1.1801   1.2021   1.2085   1.2303   1.2467   1.2642
  1.2740   1.3030   1.3097   1.3155   1.3162   1.3304   1.3701   1.3918
  1.3931   1.4062   1.4146   1.4280   1.4926   1.4959   1.5081   1.5089
  1.5107   1.5109   1.5483   1.5538   1.5616   1.5644   1.5652   1.5805
  1.5811   1.6397   1.6661   1.6882   1.8250   1.8435   1.8996   1.9308
  1.9401   1.9549   1.9611   1.9826   2.0170   2.0314   2.0526   2.0535
  2.0780   2.0900   2.0980   2.1125   2.1502   2.2004   2.2091   2.2278
  2.2342   2.2398   2.2501   2.2528   2.2690   2.2861   2.3200   2.3299
  2.3439   2.3827   2.3874   2.3882   2.4419   2.5059   2.5536   2.5837
  2.6187   2.6590   2.6593   2.6870   2.7072   2.7119   2.7310   2.7493
  2.7769   2.8192   2.8384   2.8402   2.8481   2.8695   2.8713   2.8922
  2.9633   3.0421   3.0503   3.1647   3.2430   3.3753   3.5132   3.5310
  4.2871   4.3372   4.3422   4.3467   4.3715   4.4507   4.4652   4.4851
  4.4906   4.5107   4.5868   4.6096   4.8150   4.8459
 --------------------------------------------------------------
 
          Ground-State Mulliken Net Atomic Charges

     Atom                 Charge (a.u.)
  ----------------------------------------
      1 N                    -0.041647
      2 N                    -0.041592
      3 C                    -0.774520
      4 C                    -0.774562
      5 C                     0.297126
      6 C                     0.406199
      7 C                     0.406275
      8 C                     0.297174
      9 C                    -0.406142
     10 C                    -0.479289
     11 C                    -0.479381
     12 C                    -0.406162
     13 C                    -0.102639
     14 C                    -0.102641
     15 H                     0.223083
     16 H                     0.241173
     17 H                     0.241174
     18 H                     0.223082
     19 H                     0.213097
     20 H                     0.212814
     21 H                     0.212813
     22 H                     0.213098
     23 H                     0.210732
     24 H                     0.210733
  ----------------------------------------
  Sum of atomic charges =     0.000000

 -----------------------------------------------------------------
                    Cartesian Multipole Moments
 -----------------------------------------------------------------
    Charge (ESU x 10^10)
                 0.0000
    Dipole Moment (Debye)
         X      -0.0001      Y      -0.0001      Z      -0.0000
       Tot       0.0001
    Quadrupole Moments (Debye-Ang)
        XX     -62.4665     XY      -0.0515     YY     -72.5887
        XZ      -0.0000     YZ      -0.0000     ZZ     -87.7853
    Octopole Moments (Debye-Ang^2)
       XXX      -0.0056    XXY      -0.0117    XYY      -0.0017
       YYY      -0.0416    XXZ       0.0314    XYZ       0.0437
       YYZ       0.0108    XZZ      -0.0018    YZZ      -0.0164
       ZZZ       0.0425
    Hexadecapole Moments (Debye-Ang^3)
      XXXX   -4148.1422   XXXY       6.9052   XXYY    -790.7794
      XYYY       8.2887   YYYY    -559.5047   XXXZ      -0.0004
      XXYZ      -0.0000   XYYZ      -0.0001   YYYZ      -0.0000
      XXZZ    -918.7635   XYZZ       3.7466   YYZZ    -133.5743
      XZZZ      -0.0003   YZZZ      -0.0000   ZZZZ    -102.7627
 -----------------------------------------------------------------
 Calculating analytic gradient of the SCF energy
 Gradient of SCF Energy
            1           2           3           4           5           6
    1   0.0001029  -0.0000919  -0.0001652   0.0001581  -0.0000543  -0.0001232
    2   0.0001575  -0.0001542   0.0000328  -0.0000365  -0.0000414   0.0000441
    3  -0.0000164  -0.0000164   0.0000188   0.0000188   0.0000009  -0.0000015
            7           8           9          10          11          12
    1   0.0001217   0.0000556   0.0000239   0.0000497  -0.0000493  -0.0000261
    2  -0.0000421   0.0000423  -0.0000494   0.0000232  -0.0000241   0.0000505
    3  -0.0000014   0.0000009  -0.0000009  -0.0000007  -0.0000007  -0.0000009
           13          14          15          16          17          18
    1   0.0000203  -0.0000207   0.0000280   0.0000201  -0.0000207  -0.0000284
    2  -0.0000263   0.0000250   0.0000001   0.0000107  -0.0000120  -0.0000000
    3   0.0000006   0.0000006  -0.0000001  -0.0000001  -0.0000001  -0.0000001
           19          20          21          22          23          24
    1  -0.0000131   0.0000250  -0.0000250   0.0000129  -0.0000139   0.0000138
    2  -0.0000208   0.0000318  -0.0000318   0.0000209  -0.0000344   0.0000341
    3   0.0000001  -0.0000002  -0.0000002   0.0000001  -0.0000005  -0.0000005
 Max gradient component =       1.652E-04
 RMS gradient           =       5.153E-05
 Gradient time:  CPU 38.32 s  wall 4.81 s

     Step 4	:
        Energy is -572.5692000119
                            Maximum         Tolerance       Converged?
         Gradient           1.51278281e-04	3.00000000e-04	true
         Displacement       1.93835748e-03	1.20000000e-03	false
         Energy change      2.99268379e-06	1.00000000e-06	false


	OPTIMIZATION CYCLE:	5

 Scaling Magnitude of Eigenvalues
 	Minimum: -25.00000000	 Maximum: 25.00000000
 66 Hessian Eigenvalues to form next step
   0.01305248   0.01306667   0.02016995   0.02017476   0.02170251
   0.02170398   0.02195945   0.02196116   0.02239991   0.02240644
   0.02251425   0.02251602   0.02265044   0.02265517   0.02266922
   0.02267245   0.02270231   0.02270317   0.02273965   0.02274085
   0.02940124   0.13561995   0.15778003   0.16000000   0.16000000
   0.16000000   0.16000000   0.16000000   0.16000081   0.16004376
   0.16099243   0.20989088   0.21911271   0.22000000   0.22000037
   0.22471078   0.23477420   0.24964756   0.25000006   0.25435015
   0.33793243   0.35603013   0.35639532   0.35678360   0.35692649
   0.35707277   0.35710616   0.35711964   0.35712072   0.35734048
   0.35992385   0.40885452   0.41193575   0.41625761   0.41843411
   0.42536625   0.44655711   0.44879084   0.45287584   0.45663983
   0.45763430   0.45854781   0.46006175   0.49612873   0.59243254
   0.90558224

 Minimum Search taking a RFO step
 Searching for Lambda that minimizes along all modes
	Value of Lambda   -0.00000030
	Norm  of Stepsize  0.00148817
	RMS   of Stepsize  0.00018318
Back transformation initial coordinates:
   7.2225e-01
   9.3030e-01
  -7.4832e-04
  -7.2211e-01
  -9.2938e-01
  -7.5265e-04
   3.3433e+00
   3.2971e-01
  -4.6791e-04
  -3.3432e+00
  -3.2889e-01
  -4.7081e-04
   4.9710e+00
   2.4037e+00
   1.3532e-03
  -4.3186e+00
   2.1306e+00
  -2.1536e-03
   4.3185e+00
  -2.1298e+00
  -2.1509e-03
  -4.9708e+00
  -2.4030e+00
   1.3506e-03
   7.5765e+00
   2.0353e+00
   1.6572e-03
  -6.9190e+00
   2.4846e+00
  -1.9108e-03
   6.9190e+00
  -2.4840e+00
  -1.9093e-03
  -7.5763e+00
  -2.0347e+00
   1.6562e-03
   8.5527e+00
  -4.0863e-01
   4.2990e-06
  -8.5526e+00
   4.0918e-01
   3.8563e-06
   4.1598e+00
   4.2887e+00
   2.5035e-03
  -3.0319e+00
   3.7257e+00
  -3.6819e-03
   3.0317e+00
  -3.7249e+00
  -3.6784e-03
  -4.1595e+00
  -4.2880e+00
   2.5000e-03
   8.8375e+00
   3.6542e+00
   3.1215e-03
  -7.6870e+00
   4.3884e+00
  -3.2615e-03
   7.6868e+00
  -4.3878e+00
  -3.2599e-03
  -8.8373e+00
  -3.6537e+00
   3.1212e-03
   1.0584e+01
  -7.0480e-01
   1.4223e-04
  -1.0584e+01
   7.0524e-01
   1.4279e-04

	Performing Iterative Coordinate Back-Transformation

	  Starting from Previous Position

	  iter:	0	rms: 6.6535607923e-04	maxdev: 2.1674951183e-03
	  iter:	1	rms: 2.9896463794e-07	maxdev: 7.7029877444e-07	 Success!

	Finished Iterative Coordinate Back-Transformation
 ----------------------------------------------------------------
             Standard Nuclear Orientation (Angstroms)
    I     Atom           X                Y                Z
 ----------------------------------------------------------------
    1      N       0.3822230901     0.4920994926     0.0007499871
    2      N      -0.3822089173    -0.4918313609     0.0007486142
    3      C       1.7694027784     0.1743464741     0.0002534359
    4      C      -1.7693741637    -0.1740352651     0.0002525432
    5      C       2.6306519782     1.2719789941     0.0009842087
    6      C      -2.2852507519     1.1274736232    -0.0009287268
    7      C       2.2853285717    -1.1271433456    -0.0009278451
    8      C      -2.6306597739    -1.2716381972     0.0009832952
    9      C       4.0094165692     1.0771244375     0.0006106321
   10      C      -3.6614367736     1.3148159061    -0.0013290404
   11      C       3.6615220582    -1.3144351944    -0.0013283370
   12      C      -4.0094171586    -1.0767329100     0.0006101028
   13      C       4.5259449392    -0.2161458511    -0.0005590085
   14      C      -4.5258984186     0.2165565501    -0.0005594655
   15      H       2.2011200003     2.2693568980     0.0018543364
   16      H      -1.6043167896     1.9715410212    -0.0015210310
   17      H       1.6044267062    -1.9712355828    -0.0015199834
   18      H      -2.2011636711    -2.2690314855     0.0018531407
   19      H       4.6768347167     1.9337740397     0.0012087400
   20      H      -4.0679364793     2.3222128087    -0.0022580545
   21      H       4.0680574386    -2.3218176680    -0.0022572365
   22      H      -4.6768655523    -1.9333589301     0.0012083154
   23      H       5.6009388673    -0.3728723023    -0.0008870101
   24      H      -5.6008865625     0.3733223538    -0.0008873072
 ----------------------------------------------------------------
 Molecular Point Group                 C1    NOp =  1
 Largest Abelian Subgroup              C1    NOp =  1
 Nuclear Repulsion Energy =         750.75650970 hartrees
 There are       48 alpha and       48 beta electrons
 Applying Cartesian multipole field
    Component          Value
    ---------          -----
     (2,0,0)        1.00000E-12
     (0,2,0)        2.00000E-11
     (0,0,2)       -3.00000E-11
 Nucleus-field energy     = 1.1227974784e-08 hartrees
 Requested basis set is 6-31+G(d)
 There are 90 shells and 286 basis functions
 A cutoff of  1.0D-12 yielded   3225 shell pairs
 There are     34841 function pairs
 Smallest overlap matrix eigenvalue = 2.20E-06
 Guess MOs from SCF MO coefficient file

 -----------------------------------------------------------------------
  General SCF calculation program by
  Eric Jon Sundstrom, Paul Horn, Yuezhi Mao, Dmitri Zuev, Alec White,
  David Stuck, Shaama M.S., Shane Yost, Joonho Lee, David Small,
  Daniel Levine, Susi Lehtola, Hugh Burton, Evgeny Epifanovsky,
  Bang C. Huynh
 -----------------------------------------------------------------------
 Exchange:     0.2220 Hartree-Fock + 1.0000 wB97X-D + LR-HF
 Correlation:  1.0000 wB97X-D
 Using SG-2 standard quadrature grid
 Dispersion:   Grimme D
 A restricted SCF calculation will be
 performed using DIIS
 SCF converges when DIIS error is below 1.0e-08
 User-specified cutoff of 10e-12
 used for neglect of 2-electron integrals.
 A cutoff of 10e-12
 used for neglect of overlap integrals.
 Incremental Fock algorithm is on at the start.
 ---------------------------------------
  Cycle       Energy         DIIS error
 ---------------------------------------
    1    -572.5691991182      8.52e-06  
    2    -572.5692000909      1.37e-06  
    3    -572.5692001495      5.00e-07  
    4    -572.5692001532      4.58e-07  
    5    -572.5692001554      1.09e-07  
    6    -572.5692001556      4.02e-08  
    7    -572.5692001556      1.24e-08  
    8    -572.5692001556      5.09e-09  Convergence criterion met
 ---------------------------------------
 SCF time:   CPU 79.56s  wall 10.00s 
 SCF   energy =  -572.56920016
 Total energy =  -572.56920016
 Integrated density by DFT XC:
   Number of electrons = 96
   Numerical integral  =    96.002186718721
   Relative error      =     0.0022778320 %
 
 --------------------------------------------------------------
 
                    Orbital Energies (a.u.)
 --------------------------------------------------------------
 
 Alpha MOs
 -- Occupied --
-14.5084 -14.5079 -10.3376 -10.3376 -10.3165 -10.3165 -10.3146 -10.3146
-10.3144 -10.3144 -10.3138 -10.3138 -10.3123 -10.3123  -1.1479  -0.9813
 -0.9636  -0.9027  -0.8583  -0.8575  -0.8476  -0.7806  -0.7197  -0.7145
 -0.6981  -0.6643  -0.6282  -0.6021  -0.5775  -0.5671  -0.5458  -0.5355
 -0.5283  -0.5208  -0.5193  -0.5160  -0.4900  -0.4726  -0.4512  -0.4491
 -0.4444  -0.4325  -0.4324  -0.3575  -0.3391  -0.3386  -0.3196  -0.3068
 -- Virtual --
 -0.0245   0.0495   0.0532   0.0648   0.0676   0.0727   0.0795   0.0864
  0.0898   0.1004   0.1022   0.1063   0.1084   0.1213   0.1228   0.1276
  0.1302   0.1304   0.1444   0.1459   0.1495   0.1574   0.1666   0.1772
  0.1812   0.1876   0.1920   0.1969   0.1988   0.1991   0.2041   0.2140
  0.2192   0.2203   0.2220   0.2280   0.2372   0.2383   0.2429   0.2475
  0.2573   0.2586   0.2626   0.2696   0.2710   0.2716   0.2777   0.2828
  0.2838   0.2890   0.2994   0.3036   0.3059   0.3073   0.3099   0.3144
  0.3211   0.3271   0.3343   0.3449   0.3454   0.3466   0.3521   0.3581
  0.3634   0.3651   0.3677   0.3781   0.3908   0.3994   0.4017   0.4186
  0.4197   0.4300   0.4359   0.4406   0.4528   0.4613   0.4824   0.4841
  0.5153   0.5391   0.5550   0.5965   0.6656   0.6671   0.7030   0.7079
  0.7343   0.7389   0.7456   0.7732   0.7751   0.7817   0.7946   0.8006
  0.8021   0.8136   0.8177   0.8262   0.8283   0.8386   0.8386   0.8423
  0.8446   0.8492   0.8808   0.8822   0.9067   0.9083   0.9108   0.9454
  0.9788   0.9905   1.0125   1.0177   1.0345   1.0367   1.0443   1.0660
  1.0688   1.0739   1.0834   1.0984   1.1163   1.1200   1.1234   1.1372
  1.1575   1.1796   1.1801   1.2021   1.2084   1.2303   1.2467   1.2642
  1.2739   1.3030   1.3097   1.3155   1.3162   1.3304   1.3701   1.3919
  1.3931   1.4062   1.4145   1.4279   1.4926   1.4959   1.5081   1.5089
  1.5107   1.5109   1.5483   1.5537   1.5616   1.5645   1.5652   1.5805
  1.5811   1.6397   1.6662   1.6881   1.8250   1.8435   1.8996   1.9307
  1.9400   1.9548   1.9611   1.9826   2.0170   2.0313   2.0526   2.0535
  2.0780   2.0900   2.0979   2.1124   2.1502   2.2004   2.2091   2.2278
  2.2342   2.2397   2.2501   2.2528   2.2690   2.2860   2.3200   2.3298
  2.3440   2.3827   2.3874   2.3882   2.4418   2.5059   2.5536   2.5836
  2.6188   2.6589   2.6593   2.6870   2.7072   2.7119   2.7310   2.7493
  2.7769   2.8192   2.8384   2.8402   2.8481   2.8694   2.8713   2.8922
  2.9632   3.0421   3.0503   3.1646   3.2430   3.3751   3.5133   3.5309
  4.2871   4.3372   4.3422   4.3467   4.3715   4.4507   4.4651   4.4851
  4.4906   4.5107   4.5867   4.6096   4.8150   4.8459
 --------------------------------------------------------------
 
          Ground-State Mulliken Net Atomic Charges

     Atom                 Charge (a.u.)
  ----------------------------------------
      1 N                    -0.041572
      2 N                    -0.041610
      3 C                    -0.774424
      4 C                    -0.774393
      5 C                     0.296996
      6 C                     0.406408
      7 C                     0.406356
      8 C                     0.296962
      9 C                    -0.406277
     10 C                    -0.479445
     11 C                    -0.479379
     12 C                    -0.406261
     13 C                    -0.102608
     14 C                    -0.102608
     15 H                     0.223090
     16 H                     0.241195
     17 H                     0.241194
     18 H                     0.223091
     19 H                     0.213115
     20 H                     0.212806
     21 H                     0.212806
     22 H                     0.213114
     23 H                     0.210723
     24 H                     0.210722
  ----------------------------------------
  Sum of atomic charges =     0.000000

 -----------------------------------------------------------------
                    Cartesian Multipole Moments
 -----------------------------------------------------------------
    Charge (ESU x 10^10)
                 0.0000
    Dipole Moment (Debye)
         X       0.0001      Y       0.0001      Z      -0.0013
       Tot       0.0013
    Quadrupole Moments (Debye-Ang)
        XX     -62.4638     XY      -0.0508     YY     -72.5894
        XZ       0.0000     YZ      -0.0000     ZZ     -87.7856
    Octopole Moments (Debye-Ang^2)
       XXX      -0.0020    XXY      -0.0110    XYY      -0.0012
       YYY      -0.0376    XXZ      -0.0158    XYZ       0.0478
       YYZ      -0.0010    XZZ      -0.0015    YZZ      -0.0154
       ZZZ       0.0181
    Hexadecapole Moments (Debye-Ang^3)
      XXXX   -4148.3326   XXXY       6.9447   XXYY    -790.8264
      XYYY       8.2692   YYYY    -559.5202   XXXZ      -0.0002
      XXYZ      -0.0000   XYYZ      -0.0000   YYYZ      -0.0000
      XXZZ    -918.8251   XYZZ       3.7420   YYZZ    -133.5747
      XZZZ      -0.0003   YZZZ      -0.0000   ZZZZ    -102.7636
 -----------------------------------------------------------------
 Calculating analytic gradient of the SCF energy
 Gradient of SCF Energy
            1           2           3           4           5           6
    1   0.0000420  -0.0000493  -0.0000379   0.0000417  -0.0000002  -0.0000151
    2   0.0000592  -0.0000616   0.0000025  -0.0000001  -0.0000196   0.0000283
    3   0.0000315   0.0000315  -0.0000336  -0.0000336  -0.0000008  -0.0000004
            7           8           9          10          11          12
    1   0.0000159   0.0000012   0.0000185   0.0000233  -0.0000230  -0.0000181
    2  -0.0000293   0.0000189  -0.0000402   0.0000220  -0.0000212   0.0000402
    3  -0.0000004  -0.0000008   0.0000024   0.0000016   0.0000016   0.0000024
           13          14          15          16          17          18
    1   0.0000021  -0.0000018   0.0000148   0.0000156  -0.0000150  -0.0000148
    2  -0.0000066   0.0000066  -0.0000124   0.0000076  -0.0000068   0.0000124
    3  -0.0000010  -0.0000010  -0.0000005   0.0000001   0.0000001  -0.0000005
           19          20          21          22          23          24
    1   0.0000056   0.0000140  -0.0000140  -0.0000054  -0.0000045   0.0000046
    2  -0.0000246   0.0000243  -0.0000243   0.0000245  -0.0000356   0.0000357
    3   0.0000003   0.0000000   0.0000000   0.0000003   0.0000004   0.0000004
 Max gradient component =       6.163E-05
 RMS gradient           =       2.191E-05
 Gradient time:  CPU 38.26 s  wall 4.80 s

     Step 5	:
        Energy is -572.5692001556
                            Maximum         Tolerance       Converged?
         Gradient           4.82383908e-05	3.00000000e-04	true
         Displacement       6.33557881e-04	1.20000000e-03	true
         Energy change      1.43660031e-07	1.00000000e-06	true

	 Optimization Converged in 5 cycles

 *****************************************************
             End of BFGS Algorithm
 *****************************************************
		----------------------------------
		   Verification of Optimization
		----------------------------------

 Eigenvalues of Hessian in Optimization Verification
   0.01295233   0.01306547   0.02017299   0.02024536   0.02170311
   0.02171256   0.02196016   0.02197803   0.02239949   0.02240607
   0.02251479   0.02251848   0.02265049   0.02265529   0.02266904
   0.02267237   0.02270214   0.02270306   0.02273982   0.02274104
   0.04448744   0.12813724   0.15557852   0.15946306   0.16000000
   0.16000000   0.16000000   0.16000000   0.16000000   0.16012588
   0.16017193   0.20425548   0.21854983   0.22000000   0.22000818
   0.22317800   0.23479159   0.24825272   0.25000037   0.25606491
   0.33743019   0.35582265   0.35639526   0.35653106   0.35691648
   0.35694664   0.35707278   0.35710616   0.35712074   0.35726650
   0.35973443   0.38434545   0.41194475   0.41625954   0.41771646
   0.42551017   0.42992990   0.44879051   0.45392950   0.45664002
   0.45785051   0.45855641   0.46006598   0.49566898   0.50297972
   0.90991430

 Found a minimum
		---------------------------------
		       End of Verification
		---------------------------------

 Final energy is -572.569200155605

	******************************
	**  OPTIMIZATION CONVERGED  **
	******************************
 ----------------------------------------------------------------
             Standard Nuclear Orientation (Angstroms)
    I     Atom           X                Y                Z
 ----------------------------------------------------------------
    1      N       0.3822230901     0.4920994926     0.0007499871
    2      N      -0.3822089173    -0.4918313609     0.0007486142
    3      C       1.7694027784     0.1743464741     0.0002534359
    4      C      -1.7693741637    -0.1740352651     0.0002525432
    5      C       2.6306519782     1.2719789941     0.0009842087
    6      C      -2.2852507519     1.1274736232    -0.0009287268
    7      C       2.2853285717    -1.1271433456    -0.0009278451
    8      C      -2.6306597739    -1.2716381972     0.0009832952
    9      C       4.0094165692     1.0771244375     0.0006106321
   10      C      -3.6614367736     1.3148159061    -0.0013290404
   11      C       3.6615220582    -1.3144351944    -0.0013283370
   12      C      -4.0094171586    -1.0767329100     0.0006101028
   13      C       4.5259449392    -0.2161458511    -0.0005590085
   14      C      -4.5258984186     0.2165565501    -0.0005594655
   15      H       2.2011200003     2.2693568980     0.0018543364
   16      H      -1.6043167896     1.9715410212    -0.0015210310
   17      H       1.6044267062    -1.9712355828    -0.0015199834
   18      H      -2.2011636711    -2.2690314855     0.0018531407
   19      H       4.6768347167     1.9337740397     0.0012087400
   20      H      -4.0679364793     2.3222128087    -0.0022580545
   21      H       4.0680574386    -2.3218176680    -0.0022572365
   22      H      -4.6768655523    -1.9333589301     0.0012083154
   23      H       5.6009388673    -0.3728723023    -0.0008870101
   24      H      -5.6008865625     0.3733223538    -0.0008873072
 ----------------------------------------------------------------
 Molecular Point Group                 C1    NOp =  1
 Largest Abelian Subgroup              C1    NOp =  1
 Nuclear Repulsion Energy =         750.75650970 hartrees
 There are       48 alpha and       48 beta electrons

Z-matrix Print:
$molecule
0 1
N 
N  1 1.245984
C  2 1.423103 1 114.940574
C  3 1.395187 2 115.217506 1 -179.966642 0
H  4 1.085938 3 118.581236 2 -0.000000 0
C  4 1.392465 3 120.074963 2 179.998914 0
H  6 1.085954 4 119.878076 3 -179.998348 0
C  6 1.392606 4 119.815722 3 0.003090 0
H  8 1.086359 6 120.066507 4 179.998000 0
C  8 1.397665 6 120.023501 4 -0.001248 0
H  10 1.086320 8 119.818219 6 179.998950 0
C  10 1.388879 8 120.454857 6 -0.000000 0
H  12 1.084491 10 121.142012 8 180.000000 0
C  1 1.423107 2 114.942395 3 -179.955926 0
C  14 1.395187 1 115.217400 2 -179.966781 0
H  15 1.085938 14 118.581103 1 -0.000000 0
C  15 1.392466 14 120.075144 1 179.998911 0
H  17 1.085954 15 119.878161 14 -179.998356 0
C  17 1.392606 15 119.815706 14 0.003074 0
H  19 1.086359 17 120.066502 15 179.998008 0
C  19 1.397665 17 120.023417 15 -0.001245 0
H  21 1.086320 19 119.818199 17 179.998961 0
C  21 1.388880 19 120.454951 17 -0.000000 0
H  23 1.084490 21 121.141972 19 180.000000 0
$end

 -----------------------------------------------------------------------
                  END OF GEOMETRY OPTIMIZER USING LIBOPT3               
 -----------------------------------------------------------------------
 Total job time:  116.97s(wall), 918.74s(cpu) 
 Tue Dec  2 23:27:11 2025

        *************************************************************
        *                                                           *
        *  Thank you very much for using Q-Chem.  Have a nice day.  *
        *                                                           *
        *************************************************************


