
Running Job 1 of 1 cis_vert_solv.in
qchem cis_vert_solv.in_2136192.0 /scratch1/hulinfen/qchem2136192/ 1
/apps/generic/qchem/6.3.0/openmp/exe/qcprog.exe_s cis_vert_solv.in_2136192.0 /scratch1/hulinfen/qchem2136192/
                  Welcome to Q-Chem
     A Quantum Leap Into The Future Of Chemistry


 Q-Chem 6.3, Q-Chem, Inc., Pleasanton, CA (2025)

 License issued to: University of Southern California (site)

 E. Epifanovsky,  A. T. B. Gilbert,  Xintian Feng,  Joonho Lee,  Yuezhi Mao,  
 N. Mardirossian,  P. Pokhilko,  A. White,  M. Wormit,  M. P. Coons,  
 A. L. Dempwolff,  Zhengting Gan,  D. Hait,  P. R. Horn,  L. D. Jacobson,  
 I. Kaliman,  J. Kussmann,  A. W. Lange,  Ka Un Lao,  D. S. Levine,  Jie Liu,  
 S. C. McKenzie,  A. F. Morrison,  K. D. Nanda,  F. Plasser,  D. R. Rehn,  
 M. L. Vidal,  Zhi-Qiang You,  Ying Zhu,  Huseyin Aksu,  B. Alam,  
 B. Albrecht,  A. Aldossary,  E. Alguire,  J. H. Andersen,  
 J. E. Arias-Martinez,  V. Athavale,  F. Ballesteros,  D. Barton,  K. Begam,  
 A. Behn,  N. Bellonzi,  Y. A. Bernard,  E. J. Berquist,  H. Burton,  
 S. Camps,  A. Carreras,  K. Carter-Fenk,  Mathew Chow,  Romit Chakraborty,  
 Chandrima Chakravarty,  Junhan Chen,  A. D. Chien,  K. D. Closser,  
 V. Cofer-Shabica,  L. Cunha,  S. Dasgupta,  Jia Deng,  Joseph Dickinson,  
 M. de Wergifosse,  M. Diedenhofen,  L. B. Dittmer,  Hainam Do,  Wenjie Dou,  
 S. Ehlert,  Po-Tung Fang,  S. Fatehi,  Qingguo Feng,  Jonathan Fetherolf,  
 T. Friedhoff,  Thomas Froitzheim,  Sarai Folkestad,  B. Ganoe,  J. Gayvert,  
 Qinghui Ge,  G. Gidofalvi,  M. Gimferrer,  G. Giudetti,  M. Goldey,  
 Montgomery Gray,  J. Gomes,  C. Gonzalez-Espinoza,  S. Gulania,  A. Gunina,  
 J. A. Gyamfi,  M. W. D. Hanson-Heine,  P. H. P. Harbach,  A. W. Hauser,  
 M. F. Herbst,  M. Hernandez Vera,  M. Hodecker,  Z. C. Holden,  S. Houck,  
 Xunkun Huang,  Kerwin Hui,  B. C. Huynh,  K. Ikeda,  M. Ivanov,  
 Nayanthara K. Jayadev,  Hyunjun Ji,  Zuxin Jin,  Hanjie Jiang,  
 Subrata Jana,  B. Kaduk,  S. Kaehler,  R. Kang,  Richard Kang,  
 K. Khistyaev,  Jaehoon Kim,  Yongbin Kim,  P. Klunzinger,  Z. Koczor-Benda,  
 Joong Hoon Koh,  D. Kosenkov,  Saikiran Kotaru,  L. Koulias,  T. Kowalczyk,  
 C. M. Krauter,  K. Kue,  A. Kunitsa,  T. Kus,  A. Landau,  C. W. Lander,  
 K. V. Lawler,  D. Lefrancois,  S. Lehtola,  Rain Li,  Shaozhi Li,  
 Tao E. Li,  Yi-Pei Li,  Jiashu Liang,  M. Liebenthal,  Hung-Hsuan Lin,  
 You-Sheng Lin,  Fenglai Liu,  Kuan-Yu Liu,  Xiao Liu,  M. Loipersberger,  
 A. Luenser,  C. Malbon,  Aniket Mandal,  Manisha,  A. Manjanath,  
 P. Manohar,  E. Mansoor,  S. F. Manzer,  Shan-Ping Mao,  A. V. Marenich,  
 T. Markovich,  S. Mason,  F. Matz,  S. A. Maurer,  Samuel May,  
 Alexandra McIsaac,  P. F. McLaughlin,  M. F. S. J. Menger,  J.-M. Mewes,  
 S. A. Mewes,  R. E. Moorby,  P. Morgante,  Mohammad Mostafanejad,  
 Madhubani Mukherjee,  J. W. Mullinax,  Quyen Nguyen,  Avik Kumar Ojha,  
 K. J. Oosterbaan,  Eno Paenurk,  Xiaoliang Pan,  G. Paran,  V. Parravicini,  
 R. L. Patterson,  Alexander C. Paul,  Suranjan K. Paul,  F. Pavosevic,  
 Zheng Pei,  P. Pokhilko,  S. Prager,  E. I. Proynov,  E. Ramos,  B. Rana,  
 A. E. Rask,  A. Rettig,  R. M. Richard,  F. Rob,  E. Rossomme,  S. Roy,  
 T. Scheele,  M. Scheurer,  M. Schneider,  P. E. Schneider,  Tim K. Schramm,  
 N. Sergueev,  S. M. Sharada,  Hengyuan Shen,  W. Skomorowski,  D. W. Small,  
 C. J. Stein,  Alistair J. Sterling,  Yingli Su,  Yu-Chuan Su,  
 E. J. Sundstrom,  J. Talbot,  J. A. Tan,  Zhen Tao,  Hung-Hsuan Teh,  
 J. Thirman,  C. Titeca,  N. Tkachenko,  Hung-Yi Tsai,  T. Tsuchimochi,  
 N. M. Tubman,  C. Utku,  S. P. Veccham,  O. Vydrov,  Z. Wang,  Rahel Weiss,  
 J. Wenzel,  Jonathan Wong,  J. Witte,  H. Wu,  Yanze Wu,  A. Yamada,  
 Chou-Hsun Yang,  Kun Yao,  S. Yeganeh,  S. R. Yost,  Qi Yu,  A. Zech,  
 F. Zeller,  Chongxiao Zhao,  T. Zhao,  Igor Ying Zhang,  Xing Zhang,  
 Yu Zhang,  D. Zuev,  A. Aspuru-Guzik,  A. T. Bell,  N. A. Besley,  
 K. B. Bravaya,  B. R. Brooks,  D. Casanova,  Jeng-Da Chai,  Hsing-Ta Chen,  
 S. Coriani,  C. J. Cramer,  A. E. DePrince, III,  R. A. DiStasio Jr.,  
 A. Dreuw,  B. D. Dunietz,  T. R. Furlani,  W. A. Goddard III,  S. Grimme,  
 S. Hammes-Schiffer,  T. Head-Gordon,  W. J. Hehre,  Chao-Ping Hsu,  
 T.-C. Jagau,  Yousung Jung,  A. Klamt,  Jing Kong,  D. S. Lambrecht,  
 Xiangyuan Li,  WanZhen Liang,  N. J. Mayhall,  C. W. McCurdy,  J. B. Neaton,  
 T. Neudecker,  C. Ochsenfeld,  J. A. Parkhill,  R. Peverati,  
 V. A. Rassolov,  Haisheng Ren,  Yihan Shao,  L. V. Slipchenko,  
 R. P. Steele,  J. E. Subotnik,  A. J. W. Thom,  A. Tkatchenko,  
 D. G. Truhlar,  T. Van Voorhis,  Fan Wang,  T. A. Wesolowski,  K. B. Whaley,  
 H. L. Woodcock III,  P. M. Zimmerman,  S. Faraji,  P. M. W. Gill,  
 M. Head-Gordon,  J. M. Herbert,  A. I. Krylov

 Contributors to earlier versions of Q-Chem not listed above: 
 R. D. Adamson,  B. Austin,  R. Baer,  J. Baker,  G. J. O. Beran,  
 K. Brandhorst,  S. T. Brown,  E. F. C. Byrd,  Arup K. Chakraborty,  
 G. K. L. Chan,  Chun-Min Chang,  Yunqing Chen,  C.-L. Cheng,  
 Siu Hung Chien,  D. M. Chipman,  D. L. Crittenden,  H. Dachsel,  
 R. J. Doerksen,  A. D. Dutoi,  R. G. Edgar,  J. Fosso-Tande,  
 L. Fusti-Molnar,  D. Ghosh,  A. Ghysels,  A. Golubeva-Zadorozhnaya,  
 J. Gonthier,  M. S. Gordon,  S. R. Gwaltney,  G. Hawkins,  J. E. Herr,  
 A. Heyden,  S. Hirata,  E. G. Hohenstein,  G. Kedziora,  F. J. Keil,  
 C. Kelley,  Jihan Kim,  R. A. King,  R. Z. Khaliullin,  P. P. Korambath,  
 W. Kurlancheek,  A. Laurent,  A. M. Lee,  M. S. Lee,  S. V. Levchenko,  
 Ching Yeh Lin,  D. Liotard,  E. Livshits,  R. C. Lochan,  I. Lotan,  
 L. A. Martinez-Martinez,  P. E. Maslen,  N. Nair,  D. P. O'Neill,  
 D. Neuhauser,  E. Neuscamman,  C. M. Oana,  R. Olivares-Amaya,  R. Olson,  
 T. M. Perrine,  B. Peters,  P. A. Pieniazek,  A. Prociuk,  Y. M. Rhee,  
 J. Ritchie,  M. A. Rohrdanz,  E. Rosta,  N. J. Russ,  H. F. Schaefer III,  
 M. W. Schmidt,  N. E. Schultz,  S. Sharma,  N. Shenvi,  C. D. Sherrill,  
 A. C. Simmonett,  A. Sodt,  T. Stein,  D. Stuck,  K. S. Thanthiriwatte,  
 V. Vanovschi,  L. Vogt,  Tao Wang,  A. Warshel,  M. A. Watson,  
 C. F. Williams,  Q. Wu,  X. Xu,  Jun Yang,  W. Zhang,  Yan Zhao

   Please cite Q-Chem as follows:
  "Software for the frontiers of quantum chemistry:
   An overview of developments in the Q-Chem 5 package"
   J. Chem. Phys. 155, 084801 (2021)
   https://doi.org/10.1063/5.0055522 (open access)

 Q-Chem 6.3.0 for Intel X86 EM64T Linux

 Parts of Q-Chem use Armadillo 12.8.2 (Cortisol Injector).
 http://arma.sourceforge.net/

 Q-Chem begins on Tue Dec  9 19:21:06 2025  

 Host: 
0

     Scratch files written to /scratch1/hulinfen/qchem2136192//
 May2125 |scratch|qcdevops|jenkins|workspace|build_RNUM -1
 Processing $rem in /apps/generic/qchem/6.3.0/openmp/config/preferences:
 Processing $rem in /home1/hulinfen/.qchemrc:
 Symmetry turned off for PCM/SM12/SMD calculation

 Checking the input file for inconsistencies... 	...done.

--------------------------------------------------------------
User input:
--------------------------------------------------------------
$molecule
0 1
N    0.6198703   -2.0063510    0.0357285
N   -0.6199107   -2.0063484   -0.0355631
C    1.3897818   -0.7982304    0.1445157
C   -1.3898039   -0.7982250   -0.1444347
C    1.1691515    0.1463176    1.1493039
C   -1.1690925    0.1462786   -1.1492442
C    2.4816277   -0.6732729   -0.7138430
C   -2.4816946   -0.6732110    0.7138588
C    2.0245268    1.2379208    1.2609537
C   -2.0244358    1.2378978   -1.2609840
C    3.3133572    0.4381094   -0.6153864
C   -3.3133939    0.4381859    0.6153111
C    3.0875351    1.3957996    0.3723568
C   -3.0874923    1.3958345   -0.3724547
H    0.3375686    0.0259621    1.8363428
H   -0.3374648    0.0258776   -1.8362222
H    2.6635622   -1.4455302   -1.4556806
H   -2.6636891   -1.4454362    1.4557154
H    1.8542020    1.9722570    2.0428872
H   -1.8540446    1.9722045   -2.0429307
H    4.1495040    0.5478688   -1.2997227
H   -4.1495738    0.5479941    1.2995992
H    3.7454165    2.2553694    0.4592472
H   -3.7453473    2.2554175   -0.4594138
$end

$rem
JOB_TYPE        = SP
METHOD          = wB97X-D
BASIS           = 6-31+G*
GUI             = 2

CIS_N_ROOTS     = 10
CIS_SINGLETS    = TRUE
CIS_TRIPLETS    = FALSE

SCF_ALGORITHM   = diis
MAX_SCF_CYCLES  = 200
SCF_CONVERGENCE = 8
THRESH          = 12

SOLVENT_METHOD  = PCM
$end

$pcm
Theory CPCM
Method SWIG
Solver Inversion
$end

$solvent
Dielectric 7.6
$end

--------------------------------------------------------------
 ----------------------------------------------------------------
             Standard Nuclear Orientation (Angstroms)
    I     Atom           X                Y                Z
 ----------------------------------------------------------------
    1      N       0.6198703000    -2.0063510000     0.0357285000
    2      N      -0.6199107000    -2.0063484000    -0.0355631000
    3      C       1.3897818000    -0.7982304000     0.1445157000
    4      C      -1.3898039000    -0.7982250000    -0.1444347000
    5      C       1.1691515000     0.1463176000     1.1493039000
    6      C      -1.1690925000     0.1462786000    -1.1492442000
    7      C       2.4816277000    -0.6732729000    -0.7138430000
    8      C      -2.4816946000    -0.6732110000     0.7138588000
    9      C       2.0245268000     1.2379208000     1.2609537000
   10      C      -2.0244358000     1.2378978000    -1.2609840000
   11      C       3.3133572000     0.4381094000    -0.6153864000
   12      C      -3.3133939000     0.4381859000     0.6153111000
   13      C       3.0875351000     1.3957996000     0.3723568000
   14      C      -3.0874923000     1.3958345000    -0.3724547000
   15      H       0.3375686000     0.0259621000     1.8363428000
   16      H      -0.3374648000     0.0258776000    -1.8362222000
   17      H       2.6635622000    -1.4455302000    -1.4556806000
   18      H      -2.6636891000    -1.4454362000     1.4557154000
   19      H       1.8542020000     1.9722570000     2.0428872000
   20      H      -1.8540446000     1.9722045000    -2.0429307000
   21      H       4.1495040000     0.5478688000    -1.2997227000
   22      H      -4.1495738000     0.5479941000     1.2995992000
   23      H       3.7454165000     2.2553694000     0.4592472000
   24      H      -3.7453473000     2.2554175000    -0.4594138000
 ----------------------------------------------------------------
 Nuclear Repulsion Energy =         793.73139478 hartrees
 There are       48 alpha and       48 beta electrons
 Requested basis set is 6-31+G(d)
 There are 90 shells and 286 basis functions

 Total QAlloc Memory Limit   8000 MB
 Mega-Array Size       188 MB
 MEM_STATIC part       192 MB


 Q-Chem warning in module libscrf/libscrf/pcm/PCM_CLASS/read_pcm_solvent.C, line 176:

 Using eps_inf = 1.78 (water) for excited-state calculations

 Using C-PCM dielectric factor f(eps) = (eps-1)/eps = 0.868421
 Static dielectric constant eps = 7.60
 Discretize the solute cavity surface with Lebedev spheres
	Using 110 Lebedev grid points for each H atom
	Using 194 Lebedev grid points for other atoms
	Atomic van der Waals radii (Bondi set) will be scaled by 1.20
 Using smooth SwiG surface discretization
 Remove points where switching function is < 1.0e-08
 Keep 1648 surface tesserae and discard 2168 interior tesserae
 Molecular Surface Area = 229.038 Angst**2

 A cutoff of  1.0D-12 yielded   3523 shell pairs
 There are     37591 function pairs
 Smallest overlap matrix eigenvalue = 2.46E-06

 Scale SEOQF with 1.000000e-01/1.000000e-01/1.000000e-01

 Standard Electronic Orientation quadrupole field applied
 Nucleus-field energy     =     0.0000000200 hartrees
 Guess from superposition of atomic densities
 Warning:  Energy on first SCF cycle will be non-variational
 SAD guess density has 96.000000 electrons

 -----------------------------------------------------------------------
  General SCF calculation program by
  Eric Jon Sundstrom, Paul Horn, Yuezhi Mao, Dmitri Zuev, Alec White,
  David Stuck, Shaama M.S., Shane Yost, Joonho Lee, David Small,
  Daniel Levine, Susi Lehtola, Hugh Burton, Evgeny Epifanovsky,
  Bang C. Huynh
 -----------------------------------------------------------------------
 Exchange:     0.2220 Hartree-Fock + 1.0000 wB97X-D + LR-HF
 Correlation:  1.0000 wB97X-D
 Using SG-2 standard quadrature grid
 Dispersion:   Grimme D
 using 8 threads for integral computing
 -------------------------------------------------------
 OpenMP Integral computing Module                
 Release: version 1.0, May 2013, Q-Chem Inc. Pittsburgh 
 -------------------------------------------------------
 C-PCM solvent model [f = (eps-1)/eps], solve by matrix inversion
 A restricted SCF calculation will be
 performed using DIIS
 SCF converges when DIIS error is below 1.0e-08
 User-specified cutoff of 10e-12
 used for neglect of 2-electron integrals.
 A cutoff of 10e-12
 used for neglect of overlap integrals.
 Incremental Fock algorithm is on at the start.
 ---------------------------------------
  Cycle       Energy         DIIS error
 ---------------------------------------
    1    -576.7795746051      4.29e-02  
    2    -572.4786686137      2.62e-03  
    3    -572.5261435123      1.84e-03  
    4    -572.5592181006      3.73e-04  
    5    -572.5608206334      1.34e-04  
    6    -572.5610444928      3.42e-05  
    7    -572.5610623829      1.52e-05  
    8    -572.5610660800      3.91e-06  
    9    -572.5610665612      8.08e-07  
   10    -572.5610665825      3.51e-07  
   11    -572.5610665858      1.53e-07  
   12    -572.5610665864      3.45e-08  
   13    -572.5610665864      1.55e-08  
   14    -572.5610665865      6.47e-09  Convergence criterion met
 ---------------------------------------
 SCF time:   CPU 242.93s  wall 30.00s 

************** Final PCM Free Energy Summary **************
 G_electrostatic  =      -0.01355074 hartree =      -8.50321746 kcal/mol
 G_cavitation     =       0.00000000 hartree =       0.00000000 kcal/mol
 G_dispersion     =       0.00000000 hartree =       0.00000000 kcal/mol
 G_repulsion      =       0.00000000 hartree =       0.00000000 kcal/mol
 --------------------------------------------------
 Non-electrostatic Free Energy =       0.00000000 hartree =       0.00000000 kcal/mol
 Total                         =      -0.01355074 hartree =      -8.50321746 kcal/mol
 --------------------------------------------------
 SCF Energy (H0 + V/2)                       =    -572.56106659 
 Solute Internal Energy (H0)                 =    -572.54751585 
 Total Free Energy (H0 + V/2 + non-elec)     =    -572.56106659 hartree
                                             = -359287.49376265 kcal/mol
***********************************************************

 SCF   energy =  -572.56106659
 Total energy =  -572.56106659
 Integrated density by DFT XC:
   Number of electrons = 96
   Numerical integral  =    95.996188708141
   Relative error      =     0.0039700957 %

 CIS/TDDFT Memory Preview
 --------------------------
 	O*V dim = 22848
 	Mem per subspace vector = 0.2 Mb
 	Max subspace size fits in available memory
 Direct TDDFT/TDA calculation will be performed
 Exchange:     0.2220 Hartree-Fock + 1.0000 wB97X-D + LR-HF
 Correlation:  1.0000 wB97X-D
 Using SG-2 standard quadrature grid
 Dispersion:   Grimme D
 Singlet excitation energies requested
 Adding PCM contribution to the XC response (LR-PCM)
 Optical dielectric constant (eps_inf) =  1.78
 CIS energy converged when residual is below 10e- 6
 ---------------------------------------------------
 Iter    Rts Conv    Rts Left    Ttl Dev     Max Dev
 ---------------------------------------------------
   1         0          10      0.005975    0.000917
   2         0          10      0.002361    0.000337
   3         0          10      0.001157    0.000170
   4         0          10      0.000821    0.000271
   5         0          10      0.000385    0.000158
   6         1           9      0.000133    0.000052
   7         2           8      0.000062    0.000026
   8         6           4      0.000035    0.000020
   9         7           3      0.000016    0.000009
  10         9           1      0.000008    0.000003
  11         9           1      0.000006    0.000001
  12        10           0      0.000005    0.000001    Roots Converged
 ---------------------------------------------------
 
 ---------------------------------------------------
         TDDFT/TDA Excitation Energies              
 ---------------------------------------------------

 Excited state   1: excitation energy (eV) =       2.9636
 Total energy for state   1:                  -572.45215704 au
    Multiplicity: Singlet
    Trans. Mom.:  0.6746 X  -0.0000 Y   0.3220 Z
    Strength   :     0.0405684068
    D(   44) --> V(    1) amplitude =  0.3997
    D(   48) --> V(    1) amplitude =  0.8627

 Excited state   2: excitation energy (eV) =       4.6269
 Total energy for state   2:                  -572.39103025 au
    Multiplicity: Singlet
    Trans. Mom.:  1.1958 X   0.0000 Y   0.2476 Z
    Strength   :     0.1690528708
    D(   44) --> V(    1) amplitude = -0.5042
    D(   47) --> V(    1) amplitude =  0.6912
    D(   48) --> V(    1) amplitude =  0.4163

 Excited state   3: excitation energy (eV) =       4.7768
 Total energy for state   3:                  -572.38552162 au
    Multiplicity: Singlet
    Trans. Mom.: -0.0002 X   0.5908 Y  -0.0001 Z
    Strength   :     0.0408507577
    D(   45) --> V(    1) amplitude = -0.2653
    D(   46) --> V(    1) amplitude =  0.8922

 Excited state   4: excitation energy (eV) =       4.9727
 Total energy for state   4:                  -572.37832274 au
    Multiplicity: Singlet
    Trans. Mom.: -0.9161 X   0.0000 Y   0.1114 Z
    Strength   :     0.1037501411
    D(   44) --> V(    1) amplitude =  0.6538
    D(   46) --> V(    3) amplitude = -0.2305
    D(   47) --> V(    1) amplitude =  0.4834
    D(   48) --> V(    2) amplitude =  0.4125

 Excited state   5: excitation energy (eV) =       5.0454
 Total energy for state   5:                  -572.37565291 au
    Multiplicity: Singlet
    Trans. Mom.:  0.0001 X  -0.2751 Y   0.0000 Z
    Strength   :     0.0093514128
    D(   45) --> V(    1) amplitude =  0.7741
    D(   46) --> V(    1) amplitude =  0.2159
    D(   48) --> V(    3) amplitude =  0.3450
    D(   48) --> V(    4) amplitude =  0.2543

 Excited state   6: excitation energy (eV) =       5.6079
 Total energy for state   6:                  -572.35498119 au
    Multiplicity: Singlet
    Trans. Mom.:  0.9352 X  -0.0000 Y  -0.7181 Z
    Strength   :     0.1910261501
    D(   44) --> V(    1) amplitude = -0.2315
    D(   47) --> V(    1) amplitude = -0.4570
    D(   48) --> V(    2) amplitude =  0.7571

 Excited state   7: excitation energy (eV) =       5.7624
 Total energy for state   7:                  -572.34930061 au
    Multiplicity: Singlet
    Trans. Mom.:  0.0002 X   0.8910 Y  -0.0001 Z
    Strength   :     0.1120711715
    D(   45) --> V(    1) amplitude = -0.4242
    D(   48) --> V(    3) amplitude =  0.7763

 Excited state   8: excitation energy (eV) =       5.9067
 Total energy for state   8:                  -572.34399855 au
    Multiplicity: Singlet
    Trans. Mom.:  0.0000 X  -0.2909 Y  -0.0001 Z
    Strength   :     0.0122421704
    D(   44) --> V(    3) amplitude = -0.2218
    D(   45) --> V(    1) amplitude = -0.2281
    D(   46) --> V(    2) amplitude = -0.2906
    D(   47) --> V(    3) amplitude = -0.2484
    D(   48) --> V(    3) amplitude = -0.3404
    D(   48) --> V(    4) amplitude =  0.7204

 Excited state   9: excitation energy (eV) =       6.0683
 Total energy for state   9:                  -572.33806132 au
    Multiplicity: Singlet
    Trans. Mom.: -0.4074 X   0.0001 Y  -0.0887 Z
    Strength   :     0.0258387977
    D(   47) --> V(    2) amplitude =  0.2257
    D(   48) --> V(    6) amplitude =  0.8338

 Excited state  10: excitation energy (eV) =       6.3823
 Total energy for state  10:                  -572.32652287 au
    Multiplicity: Singlet
    Trans. Mom.: -0.3390 X   0.0001 Y   0.2294 Z
    Strength   :     0.0261924811
    D(   44) --> V(    2) amplitude = -0.4769
    D(   45) --> V(    4) amplitude =  0.2784
    D(   46) --> V(    3) amplitude = -0.4925
    D(   47) --> V(    2) amplitude =  0.2950
    D(   47) --> V(    6) amplitude = -0.2474
    D(   48) --> V(    2) amplitude = -0.3589
    D(   48) --> V(    6) amplitude = -0.2294
 
 ---------------------------------------------------
  SETman timing summary (seconds)
  CPU time               679.97s
  System time              0.00s
  Wall time               96.80s
 
 --------------------------------------------------------------
 
                    Orbital Energies (a.u.)
 --------------------------------------------------------------
 
 Alpha MOs
 -- Occupied --
-14.5291 -14.5285 -10.3479 -10.3479 -10.3181 -10.3181 -10.3160 -10.3160
-10.3151 -10.3150 -10.3149 -10.3149 -10.3132 -10.3132  -1.1601  -0.9819
 -0.9705  -0.9006  -0.8634  -0.8599  -0.8593  -0.7820  -0.7276  -0.7147
 -0.7147  -0.6688  -0.6452  -0.5968  -0.5863  -0.5668  -0.5637  -0.5403
 -0.5328  -0.5219  -0.5185  -0.5101  -0.4907  -0.4625  -0.4589  -0.4570
 -0.4514  -0.4338  -0.4301  -0.3555  -0.3506  -0.3388  -0.3374  -0.3025
 -- Virtual --
 -0.0140   0.0423   0.0457   0.0574   0.0677   0.0713   0.0812   0.0862
  0.0883   0.0984   0.1006   0.1033   0.1056   0.1137   0.1220   0.1247
  0.1323   0.1340   0.1441   0.1474   0.1582   0.1678   0.1773   0.1796
  0.1809   0.1867   0.1874   0.1952   0.1973   0.1989   0.2055   0.2113
  0.2204   0.2225   0.2254   0.2317   0.2391   0.2438   0.2451   0.2471
  0.2508   0.2522   0.2619   0.2660   0.2763   0.2772   0.2811   0.2818
  0.2910   0.2917   0.2960   0.2966   0.3024   0.3050   0.3134   0.3174
  0.3185   0.3199   0.3254   0.3306   0.3409   0.3465   0.3476   0.3534
  0.3647   0.3682   0.3724   0.3798   0.3883   0.3923   0.3951   0.4058
  0.4071   0.4255   0.4260   0.4383   0.4432   0.4436   0.4597   0.4617
  0.4720   0.4803   0.4905   0.5674   0.6390   0.6507   0.6940   0.6989
  0.7022   0.7109   0.7448   0.7605   0.7629   0.7846   0.7949   0.8054
  0.8098   0.8220   0.8254   0.8297   0.8382   0.8394   0.8475   0.8577
  0.8691   0.8858   0.8880   0.8955   0.9127   0.9380   0.9545   0.9608
  0.9900   0.9954   1.0194   1.0312   1.0374   1.0458   1.0479   1.0619
  1.0642   1.0772   1.0839   1.1049   1.1123   1.1227   1.1256   1.1486
  1.1591   1.1742   1.1809   1.1864   1.1952   1.2022   1.2176   1.2179
  1.2524   1.2601   1.2726   1.2831   1.3005   1.3071   1.3252   1.3362
  1.3730   1.3762   1.3910   1.4139   1.4678   1.4772   1.5053   1.5234
  1.5351   1.5442   1.5518   1.5600   1.5646   1.5772   1.5831   1.5875
  1.5966   1.6035   1.6491   1.7129   1.7300   1.8226   1.8894   1.9168
  1.9184   1.9415   1.9522   1.9843   2.0083   2.0412   2.0479   2.0607
  2.0694   2.0727   2.0956   2.1180   2.1916   2.2008   2.2049   2.2274
  2.2326   2.2332   2.2417   2.2432   2.2573   2.2573   2.3218   2.3366
  2.3445   2.3679   2.3894   2.3894   2.4158   2.4352   2.4868   2.5507
  2.6340   2.6571   2.6802   2.6983   2.7132   2.7154   2.7319   2.7487
  2.7647   2.8187   2.8267   2.8317   2.8358   2.8520   2.8832   2.9037
  2.9270   2.9697   3.0213   3.1823   3.1916   3.3130   3.4971   3.5227
  4.2131   4.3489   4.3491   4.3584   4.3664   4.4219   4.4399   4.4669
  4.5020   4.5240   4.5471   4.6031   4.8079   4.8294
 --------------------------------------------------------------
 
          Ground-State Mulliken Net Atomic Charges

     Atom                 Charge (a.u.)
  ----------------------------------------
      1 N                    -0.063379
      2 N                    -0.063366
      3 C                    -0.237712
      4 C                    -0.237713
      5 C                     0.249237
      6 C                     0.249303
      7 C                    -0.223325
      8 C                    -0.223342
      9 C                    -0.402300
     10 C                    -0.402333
     11 C                    -0.296146
     12 C                    -0.296152
     13 C                    -0.254873
     14 C                    -0.254861
     15 H                     0.253754
     16 H                     0.253756
     17 H                     0.250091
     18 H                     0.250092
     19 H                     0.242199
     20 H                     0.242199
     21 H                     0.242369
     22 H                     0.242369
     23 H                     0.240065
     24 H                     0.240066
  ----------------------------------------
  Sum of atomic charges =     0.000000

 -----------------------------------------------------------------
                    Cartesian Multipole Moments
 -----------------------------------------------------------------
    Charge (ESU x 10^10)
                 0.0000
    Dipole Moment (Debye)
         X      -0.0000      Y       4.6173      Z      -0.0002
       Tot       4.6173
    Quadrupole Moments (Debye-Ang)
        XX     -70.9074     XY      -0.0001     YY     -87.8089
        XZ      -6.9421     YZ       0.0004     ZZ     -75.4171
    Octopole Moments (Debye-Ang^2)
       XXX      -0.0032    XXY      30.8814    XYY       0.0001
       YYY      42.9448    XXZ      -0.0010    XYZ      14.6347
       YYZ      -0.0024    XZZ       0.0002    YZZ       3.1962
       ZZZ      -0.0012
    Hexadecapole Moments (Debye-Ang^3)
      XXXX   -2407.5515   XXXY       0.0015   XXYY    -501.9475
      XYYY       0.0011   YYYY    -836.2073   XXXZ    -168.0070
      XXYZ       0.0021   XYYZ       1.2651   YYYZ       0.0115
      XXZZ    -484.4147   XYZZ       0.0010   YYZZ    -177.8798
      XZZZ     -50.9740   YZZZ       0.0077   ZZZZ    -419.2078
 -----------------------------------------------------------------
 Total job time:  128.90s(wall), 926.38s(cpu) 
 Tue Dec  9 19:23:15 2025

        *************************************************************
        *                                                           *
        *  Thank you very much for using Q-Chem.  Have a nice day.  *
        *                                                           *
        *************************************************************


