
Running Job 1 of 1 cis_opt3.in
qchem cis_opt3.in_3149947.0 /scratch1/hulinfen/qchem3149947/ 1
/apps/generic/qchem/6.3.0/openmp/exe/qcprog.exe_s cis_opt3.in_3149947.0 /scratch1/hulinfen/qchem3149947/
                  Welcome to Q-Chem
     A Quantum Leap Into The Future Of Chemistry


 Q-Chem 6.3, Q-Chem, Inc., Pleasanton, CA (2025)

 License issued to: University of Southern California (site)

 E. Epifanovsky,  A. T. B. Gilbert,  Xintian Feng,  Joonho Lee,  Yuezhi Mao,  
 N. Mardirossian,  P. Pokhilko,  A. White,  M. Wormit,  M. P. Coons,  
 A. L. Dempwolff,  Zhengting Gan,  D. Hait,  P. R. Horn,  L. D. Jacobson,  
 I. Kaliman,  J. Kussmann,  A. W. Lange,  Ka Un Lao,  D. S. Levine,  Jie Liu,  
 S. C. McKenzie,  A. F. Morrison,  K. D. Nanda,  F. Plasser,  D. R. Rehn,  
 M. L. Vidal,  Zhi-Qiang You,  Ying Zhu,  Huseyin Aksu,  B. Alam,  
 B. Albrecht,  A. Aldossary,  E. Alguire,  J. H. Andersen,  
 J. E. Arias-Martinez,  V. Athavale,  F. Ballesteros,  D. Barton,  K. Begam,  
 A. Behn,  N. Bellonzi,  Y. A. Bernard,  E. J. Berquist,  H. Burton,  
 S. Camps,  A. Carreras,  K. Carter-Fenk,  Mathew Chow,  Romit Chakraborty,  
 Chandrima Chakravarty,  Junhan Chen,  A. D. Chien,  K. D. Closser,  
 V. Cofer-Shabica,  L. Cunha,  S. Dasgupta,  Jia Deng,  Joseph Dickinson,  
 M. de Wergifosse,  M. Diedenhofen,  L. B. Dittmer,  Hainam Do,  Wenjie Dou,  
 S. Ehlert,  Po-Tung Fang,  S. Fatehi,  Qingguo Feng,  Jonathan Fetherolf,  
 T. Friedhoff,  Thomas Froitzheim,  Sarai Folkestad,  B. Ganoe,  J. Gayvert,  
 Qinghui Ge,  G. Gidofalvi,  M. Gimferrer,  G. Giudetti,  M. Goldey,  
 Montgomery Gray,  J. Gomes,  C. Gonzalez-Espinoza,  S. Gulania,  A. Gunina,  
 J. A. Gyamfi,  M. W. D. Hanson-Heine,  P. H. P. Harbach,  A. W. Hauser,  
 M. F. Herbst,  M. Hernandez Vera,  M. Hodecker,  Z. C. Holden,  S. Houck,  
 Xunkun Huang,  Kerwin Hui,  B. C. Huynh,  K. Ikeda,  M. Ivanov,  
 Nayanthara K. Jayadev,  Hyunjun Ji,  Zuxin Jin,  Hanjie Jiang,  
 Subrata Jana,  B. Kaduk,  S. Kaehler,  R. Kang,  Richard Kang,  
 K. Khistyaev,  Jaehoon Kim,  Yongbin Kim,  P. Klunzinger,  Z. Koczor-Benda,  
 Joong Hoon Koh,  D. Kosenkov,  Saikiran Kotaru,  L. Koulias,  T. Kowalczyk,  
 C. M. Krauter,  K. Kue,  A. Kunitsa,  T. Kus,  A. Landau,  C. W. Lander,  
 K. V. Lawler,  D. Lefrancois,  S. Lehtola,  Rain Li,  Shaozhi Li,  
 Tao E. Li,  Yi-Pei Li,  Jiashu Liang,  M. Liebenthal,  Hung-Hsuan Lin,  
 You-Sheng Lin,  Fenglai Liu,  Kuan-Yu Liu,  Xiao Liu,  M. Loipersberger,  
 A. Luenser,  C. Malbon,  Aniket Mandal,  Manisha,  A. Manjanath,  
 P. Manohar,  E. Mansoor,  S. F. Manzer,  Shan-Ping Mao,  A. V. Marenich,  
 T. Markovich,  S. Mason,  F. Matz,  S. A. Maurer,  Samuel May,  
 Alexandra McIsaac,  P. F. McLaughlin,  M. F. S. J. Menger,  J.-M. Mewes,  
 S. A. Mewes,  R. E. Moorby,  P. Morgante,  Mohammad Mostafanejad,  
 Madhubani Mukherjee,  J. W. Mullinax,  Quyen Nguyen,  Avik Kumar Ojha,  
 K. J. Oosterbaan,  Eno Paenurk,  Xiaoliang Pan,  G. Paran,  V. Parravicini,  
 R. L. Patterson,  Alexander C. Paul,  Suranjan K. Paul,  F. Pavosevic,  
 Zheng Pei,  P. Pokhilko,  S. Prager,  E. I. Proynov,  E. Ramos,  B. Rana,  
 A. E. Rask,  A. Rettig,  R. M. Richard,  F. Rob,  E. Rossomme,  S. Roy,  
 T. Scheele,  M. Scheurer,  M. Schneider,  P. E. Schneider,  Tim K. Schramm,  
 N. Sergueev,  S. M. Sharada,  Hengyuan Shen,  W. Skomorowski,  D. W. Small,  
 C. J. Stein,  Alistair J. Sterling,  Yingli Su,  Yu-Chuan Su,  
 E. J. Sundstrom,  J. Talbot,  J. A. Tan,  Zhen Tao,  Hung-Hsuan Teh,  
 J. Thirman,  C. Titeca,  N. Tkachenko,  Hung-Yi Tsai,  T. Tsuchimochi,  
 N. M. Tubman,  C. Utku,  S. P. Veccham,  O. Vydrov,  Z. Wang,  Rahel Weiss,  
 J. Wenzel,  Jonathan Wong,  J. Witte,  H. Wu,  Yanze Wu,  A. Yamada,  
 Chou-Hsun Yang,  Kun Yao,  S. Yeganeh,  S. R. Yost,  Qi Yu,  A. Zech,  
 F. Zeller,  Chongxiao Zhao,  T. Zhao,  Igor Ying Zhang,  Xing Zhang,  
 Yu Zhang,  D. Zuev,  A. Aspuru-Guzik,  A. T. Bell,  N. A. Besley,  
 K. B. Bravaya,  B. R. Brooks,  D. Casanova,  Jeng-Da Chai,  Hsing-Ta Chen,  
 S. Coriani,  C. J. Cramer,  A. E. DePrince, III,  R. A. DiStasio Jr.,  
 A. Dreuw,  B. D. Dunietz,  T. R. Furlani,  W. A. Goddard III,  S. Grimme,  
 S. Hammes-Schiffer,  T. Head-Gordon,  W. J. Hehre,  Chao-Ping Hsu,  
 T.-C. Jagau,  Yousung Jung,  A. Klamt,  Jing Kong,  D. S. Lambrecht,  
 Xiangyuan Li,  WanZhen Liang,  N. J. Mayhall,  C. W. McCurdy,  J. B. Neaton,  
 T. Neudecker,  C. Ochsenfeld,  J. A. Parkhill,  R. Peverati,  
 V. A. Rassolov,  Haisheng Ren,  Yihan Shao,  L. V. Slipchenko,  
 R. P. Steele,  J. E. Subotnik,  A. J. W. Thom,  A. Tkatchenko,  
 D. G. Truhlar,  T. Van Voorhis,  Fan Wang,  T. A. Wesolowski,  K. B. Whaley,  
 H. L. Woodcock III,  P. M. Zimmerman,  S. Faraji,  P. M. W. Gill,  
 M. Head-Gordon,  J. M. Herbert,  A. I. Krylov

 Contributors to earlier versions of Q-Chem not listed above: 
 R. D. Adamson,  B. Austin,  R. Baer,  J. Baker,  G. J. O. Beran,  
 K. Brandhorst,  S. T. Brown,  E. F. C. Byrd,  Arup K. Chakraborty,  
 G. K. L. Chan,  Chun-Min Chang,  Yunqing Chen,  C.-L. Cheng,  
 Siu Hung Chien,  D. M. Chipman,  D. L. Crittenden,  H. Dachsel,  
 R. J. Doerksen,  A. D. Dutoi,  R. G. Edgar,  J. Fosso-Tande,  
 L. Fusti-Molnar,  D. Ghosh,  A. Ghysels,  A. Golubeva-Zadorozhnaya,  
 J. Gonthier,  M. S. Gordon,  S. R. Gwaltney,  G. Hawkins,  J. E. Herr,  
 A. Heyden,  S. Hirata,  E. G. Hohenstein,  G. Kedziora,  F. J. Keil,  
 C. Kelley,  Jihan Kim,  R. A. King,  R. Z. Khaliullin,  P. P. Korambath,  
 W. Kurlancheek,  A. Laurent,  A. M. Lee,  M. S. Lee,  S. V. Levchenko,  
 Ching Yeh Lin,  D. Liotard,  E. Livshits,  R. C. Lochan,  I. Lotan,  
 L. A. Martinez-Martinez,  P. E. Maslen,  N. Nair,  D. P. O'Neill,  
 D. Neuhauser,  E. Neuscamman,  C. M. Oana,  R. Olivares-Amaya,  R. Olson,  
 T. M. Perrine,  B. Peters,  P. A. Pieniazek,  A. Prociuk,  Y. M. Rhee,  
 J. Ritchie,  M. A. Rohrdanz,  E. Rosta,  N. J. Russ,  H. F. Schaefer III,  
 M. W. Schmidt,  N. E. Schultz,  S. Sharma,  N. Shenvi,  C. D. Sherrill,  
 A. C. Simmonett,  A. Sodt,  T. Stein,  D. Stuck,  K. S. Thanthiriwatte,  
 V. Vanovschi,  L. Vogt,  Tao Wang,  A. Warshel,  M. A. Watson,  
 C. F. Williams,  Q. Wu,  X. Xu,  Jun Yang,  W. Zhang,  Yan Zhao

   Please cite Q-Chem as follows:
  "Software for the frontiers of quantum chemistry:
   An overview of developments in the Q-Chem 5 package"
   J. Chem. Phys. 155, 084801 (2021)
   https://doi.org/10.1063/5.0055522 (open access)

 Q-Chem 6.3.0 for Intel X86 EM64T Linux

 Parts of Q-Chem use Armadillo 12.8.2 (Cortisol Injector).
 http://arma.sourceforge.net/

 Q-Chem begins on Wed Dec  3 00:48:41 2025  

 Host: 
0

     Scratch files written to /scratch1/hulinfen/qchem3149947//
 May2125 |scratch|qcdevops|jenkins|workspace|build_RNUM -1
 Processing $rem in /apps/generic/qchem/6.3.0/openmp/config/preferences:
 Processing $rem in /home1/hulinfen/.qchemrc:

 Checking the input file for inconsistencies... 	...done.

--------------------------------------------------------------
User input:
--------------------------------------------------------------
$molecule
0 1
N   -0.6341561    0.2430362    0.2833713
N   -0.0228877   -0.2905979   -0.6755585
C   -2.0492564    0.3349248    0.4463919
C   -0.5532951   -0.5800019   -1.9687745
C   -2.9319945   -0.6548398   -0.0334429
C   -1.5432014    0.2196745   -2.5767847
C   -2.5707416    1.4246140    1.1574955
C   -0.0285311   -1.6693785   -2.6779493
C   -4.3093699   -0.5308987    0.1730624
C   -2.0131345   -0.0918125   -3.8563469
C   -3.9488756    1.5452256    1.3613618
C   -0.5016089   -1.9779307   -3.9571499
C   -4.8179096    0.5699484    0.8664032
C   -1.4957773   -1.1917946   -4.5445131
H   -2.5627053   -1.5254944   -0.5578656
H   -1.9476692    1.0867730   -2.0728241
H   -1.9062464    2.1848984    1.5487842
H    0.7448851   -2.2836977   -2.2339505
H   -4.9824086   -1.2918031   -0.2005314
H   -2.7755276    0.5233892   -4.3165764
H   -4.3426795    2.3940614    1.9053023
H   -0.0954591   -2.8255334   -4.4938904
H   -5.8842527    0.6634112    1.0264630
H   -1.8598271   -1.4304835   -5.5354373
$end

$rem
BASIS  =  6-31+G*
GUI  =  2
JOBTYPE  =  OPT
METHOD  =  wB97X-D
THRESH = 12
SCF_CONVERGENCE  =  8
$end

--------------------------------------------------------------
 ----------------------------------------------------------------
             Standard Nuclear Orientation (Angstroms)
    I     Atom           X                Y                Z
 ----------------------------------------------------------------
    1      N       0.6260478618    -1.9258682313    -0.0501608111
    2      N      -0.6261042861    -1.9258865633     0.0502173194
    3      C       1.4905860920    -0.7965502165     0.0712581325
    4      C      -1.4906405435    -0.7965868185    -0.0712464765
    5      C       1.2003932282     0.2904922061     0.9216867451
    6      C      -1.2004176469     0.2903848600    -0.9217383761
    7      C       2.6968995682    -0.7984971372    -0.6427738716
    8      C      -2.6969420549    -0.7984566542     0.6428128324
    9      C       2.0919673748     1.3627522918     1.0242668480
   10      C      -2.0919168820     1.3626930907    -1.0243291424
   11      C       3.5855860786     0.2760281316    -0.5379231151
   12      C      -3.5855609302     0.2761226928     0.5379464340
   13      C       3.2816760904     1.3575667694     0.2923073468
   14      C      -3.2815947210     1.3576185007    -0.2923232000
   15      H       0.2948019555     0.3109653973     1.5123799049
   16      H      -0.2948415294     0.3107635534    -1.5124556526
   17      H       2.9445724243    -1.6331715558    -1.2867225168
   18      H      -2.9446479006    -1.6330935423     1.2867994093
   19      H       1.8623625164     2.1959857920     1.6758284094
   20      H      -1.8622564173     2.1958794117    -1.6759303922
   21      H       4.5111744138     0.2688132493    -1.0989125747
   22      H      -4.5111342332     0.2689925160     1.0989647784
   23      H       3.9711919768     2.1878187324     0.3741093140
   24      H      -3.9710421603     2.1879237077    -0.3741211803
 ----------------------------------------------------------------
 Molecular Point Group                 C1    NOp =  1
 Largest Abelian Subgroup              C1    NOp =  1
 Nuclear Repulsion Energy =         784.34702477 hartrees
 There are       48 alpha and       48 beta electrons
 Requested basis set is 6-31+G(d)
 There are 90 shells and 286 basis functions

 Total QAlloc Memory Limit   8000 MB
 Mega-Array Size       188 MB
 MEM_STATIC part       192 MB

 -----------------------------------------------------------------------
                STARTING GEOMETRY OPTIMIZER USING LIBOPT3
                by Peter F. McLaughlin, Yu Zhang, Evgeny Epifanovsky
 -----------------------------------------------------------------------

              Initial Energy and Gradient Calculation
   -- Checking Topology for Ill-Behaving Coordinates --

 -------------------------------------------
   Coordinate       |  Removed | Additions 
 -------------------------------------------
	Bonds                     0          0
	Angles                    0          0
	Torsions                  0          0
	Co-Linear Type5s          0          0
	Co-Linear Type6s          0          0
 -------------------------------------------
     Done Checking Topology
 ----------------------------------------------------------------
             Standard Nuclear Orientation (Angstroms)
    I     Atom           X                Y                Z
 ----------------------------------------------------------------
    1      N       0.6260478618    -1.9258682313    -0.0501608111
    2      N      -0.6261042861    -1.9258865633     0.0502173194
    3      C       1.4905860920    -0.7965502165     0.0712581325
    4      C      -1.4906405435    -0.7965868185    -0.0712464765
    5      C       1.2003932282     0.2904922061     0.9216867451
    6      C      -1.2004176469     0.2903848600    -0.9217383761
    7      C       2.6968995682    -0.7984971372    -0.6427738716
    8      C      -2.6969420549    -0.7984566542     0.6428128324
    9      C       2.0919673748     1.3627522918     1.0242668480
   10      C      -2.0919168820     1.3626930907    -1.0243291424
   11      C       3.5855860786     0.2760281316    -0.5379231151
   12      C      -3.5855609302     0.2761226928     0.5379464340
   13      C       3.2816760904     1.3575667694     0.2923073468
   14      C      -3.2815947210     1.3576185007    -0.2923232000
   15      H       0.2948019555     0.3109653973     1.5123799049
   16      H      -0.2948415294     0.3107635534    -1.5124556526
   17      H       2.9445724243    -1.6331715558    -1.2867225168
   18      H      -2.9446479006    -1.6330935423     1.2867994093
   19      H       1.8623625164     2.1959857920     1.6758284094
   20      H      -1.8622564173     2.1958794117    -1.6759303922
   21      H       4.5111744138     0.2688132493    -1.0989125747
   22      H      -4.5111342332     0.2689925160     1.0989647784
   23      H       3.9711919768     2.1878187324     0.3741093140
   24      H      -3.9710421603     2.1879237077    -0.3741211803
 ----------------------------------------------------------------
 Molecular Point Group                 C1    NOp =  1
 Largest Abelian Subgroup              C1    NOp =  1
 Nuclear Repulsion Energy =         784.34702477 hartrees
 There are       48 alpha and       48 beta electrons
 Requested basis set is 6-31+G(d)
 There are 90 shells and 286 basis functions
 A cutoff of  1.0D-12 yielded   3483 shell pairs
 There are     37306 function pairs
 Smallest overlap matrix eigenvalue = 2.94E-06

 Scale SEOQF with 1.000000e-01/1.000000e-01/1.000000e-01

 Standard Electronic Orientation quadrupole field applied
 Nucleus-field energy     =     0.0000000250 hartrees
 Guess from superposition of atomic densities
 Warning:  Energy on first SCF cycle will be non-variational
 SAD guess density has 96.000000 electrons

 -----------------------------------------------------------------------
  General SCF calculation program by
  Eric Jon Sundstrom, Paul Horn, Yuezhi Mao, Dmitri Zuev, Alec White,
  David Stuck, Shaama M.S., Shane Yost, Joonho Lee, David Small,
  Daniel Levine, Susi Lehtola, Hugh Burton, Evgeny Epifanovsky,
  Bang C. Huynh
 -----------------------------------------------------------------------
 Exchange:     0.2220 Hartree-Fock + 1.0000 wB97X-D + LR-HF
 Correlation:  1.0000 wB97X-D
 Using SG-2 standard quadrature grid
 Dispersion:   Grimme D
 using 8 threads for integral computing
 -------------------------------------------------------
 OpenMP Integral computing Module                
 Release: version 1.0, May 2013, Q-Chem Inc. Pittsburgh 
 -------------------------------------------------------
 A restricted SCF calculation will be
 performed using DIIS
 SCF converges when DIIS error is below 1.0e-08
 User-specified cutoff of 10e-12
 used for neglect of 2-electron integrals.
 A cutoff of 10e-12
 used for neglect of overlap integrals.
 Incremental Fock algorithm is on at the start.
 ---------------------------------------
  Cycle       Energy         DIIS error
 ---------------------------------------
    1    -576.6597880688      4.25e-02  
    2    -572.4606106863      2.63e-03  
    3    -572.5045208339      1.90e-03  
    4    -572.5390860861      4.93e-04  
    5    -572.5417081817      1.75e-04  
    6    -572.5420911310      4.02e-05  
    7    -572.5421130509      1.72e-05  
    8    -572.5421176489      4.51e-06  
    9    -572.5421184031      1.77e-06  
   10    -572.5421184637      5.60e-07  
   11    -572.5421184738      1.85e-07  
   12    -572.5421184747      9.08e-08  
   13    -572.5421184749      2.59e-08  
   14    -572.5421184749      8.40e-09  Convergence criterion met
 ---------------------------------------
 SCF time:   CPU 196.21s  wall 24.00s 
 SCF   energy =  -572.54211847
 Total energy =  -572.54211847
 Integrated density by DFT XC:
   Number of electrons = 96
   Numerical integral  =    95.996186483237
   Relative error      =     0.0039724133 %
 
 --------------------------------------------------------------
 
                    Orbital Energies (a.u.)
 --------------------------------------------------------------
 
 Alpha MOs
 -- Occupied --
-14.5168 -14.5163 -10.3512 -10.3512 -10.3214 -10.3214 -10.3210 -10.3210
-10.3201 -10.3201 -10.3199 -10.3199 -10.3192 -10.3192  -1.1387  -0.9806
 -0.9688  -0.9027  -0.8630  -0.8625  -0.8594  -0.7849  -0.7288  -0.7188
 -0.7133  -0.6727  -0.6472  -0.6018  -0.5910  -0.5648  -0.5614  -0.5478
 -0.5395  -0.5236  -0.5223  -0.4954  -0.4937  -0.4620  -0.4612  -0.4561
 -0.4554  -0.4355  -0.4307  -0.3526  -0.3455  -0.3452  -0.3341  -0.2863
 -- Virtual --
 -0.0259   0.0351   0.0524   0.0557   0.0627   0.0727   0.0807   0.0818
  0.0889   0.0898   0.0920   0.1018   0.1047   0.1117   0.1123   0.1261
  0.1271   0.1349   0.1418   0.1484   0.1549   0.1635   0.1680   0.1748
  0.1787   0.1895   0.1899   0.1928   0.1986   0.2020   0.2052   0.2089
  0.2101   0.2177   0.2179   0.2272   0.2429   0.2438   0.2468   0.2476
  0.2546   0.2551   0.2569   0.2679   0.2686   0.2743   0.2775   0.2784
  0.2834   0.2886   0.2944   0.2961   0.3000   0.3042   0.3093   0.3111
  0.3137   0.3199   0.3217   0.3264   0.3389   0.3494   0.3494   0.3564
  0.3612   0.3700   0.3763   0.3876   0.3904   0.3921   0.3942   0.3960
  0.4105   0.4228   0.4241   0.4274   0.4345   0.4452   0.4564   0.4701
  0.4779   0.4831   0.4918   0.5806   0.6319   0.6589   0.6693   0.6899
  0.7006   0.7367   0.7442   0.7527   0.7622   0.7719   0.7953   0.8032
  0.8087   0.8156   0.8190   0.8223   0.8294   0.8331   0.8402   0.8506
  0.8665   0.8793   0.8874   0.9157   0.9272   0.9463   0.9591   0.9811
  0.9849   0.9942   1.0202   1.0245   1.0329   1.0367   1.0395   1.0485
  1.0697   1.0737   1.0961   1.1077   1.1168   1.1197   1.1372   1.1489
  1.1634   1.1724   1.1821   1.1944   1.2010   1.2079   1.2116   1.2291
  1.2309   1.2661   1.2785   1.2915   1.3158   1.3263   1.3351   1.3470
  1.3518   1.3698   1.3899   1.4225   1.4733   1.4752   1.4912   1.5087
  1.5268   1.5293   1.5369   1.5583   1.5622   1.5680   1.5735   1.5755
  1.5832   1.5889   1.6830   1.7188   1.7830   1.8200   1.8790   1.9056
  1.9092   1.9180   1.9326   1.9670   2.0331   2.0414   2.0468   2.0563
  2.0662   2.0689   2.0865   2.1119   2.1632   2.1834   2.1848   2.2043
  2.2163   2.2250   2.2323   2.2374   2.2501   2.2536   2.2994   2.3249
  2.3446   2.3691   2.3748   2.3801   2.4264   2.4283   2.4798   2.5389
  2.5691   2.6338   2.6792   2.6914   2.7034   2.7091   2.7117   2.7413
  2.7502   2.8088   2.8244   2.8342   2.8356   2.8471   2.8700   2.9063
  2.9242   2.9668   3.0208   3.1833   3.1839   3.3655   3.4853   3.5158
  4.2582   4.3435   4.3455   4.3510   4.3789   4.4160   4.4332   4.4665
  4.5039   4.5147   4.5229   4.5816   4.7830   4.8549
 --------------------------------------------------------------
 
          Ground-State Mulliken Net Atomic Charges

     Atom                 Charge (a.u.)
  ----------------------------------------
      1 N                     0.015035
      2 N                     0.015027
      3 C                    -0.531164
      4 C                    -0.531041
      5 C                     0.504658
      6 C                     0.504532
      7 C                    -0.171363
      8 C                    -0.171392
      9 C                    -0.464223
     10 C                    -0.464154
     11 C                    -0.286924
     12 C                    -0.286906
     13 C                    -0.170402
     14 C                    -0.170440
     15 H                     0.232837
     16 H                     0.232837
     17 H                     0.229504
     18 H                     0.229505
     19 H                     0.214506
     20 H                     0.214506
     21 H                     0.215563
     22 H                     0.215563
     23 H                     0.211969
     24 H                     0.211969
  ----------------------------------------
  Sum of atomic charges =     0.000000

 -----------------------------------------------------------------
                    Cartesian Multipole Moments
 -----------------------------------------------------------------
    Charge (ESU x 10^10)
                 0.0000
    Dipole Moment (Debye)
         X      -0.0000      Y       3.7042      Z      -0.0000
       Tot       3.7042
    Quadrupole Moments (Debye-Ang)
        XX     -69.6662     XY      -0.0002     YY     -85.9812
        XZ      -5.7915     YZ       0.0004     ZZ     -79.9686
    Octopole Moments (Debye-Ang^2)
       XXX       0.0031    XXY      18.2149    XYY       0.0001
       YYY      33.8393    XXZ       0.0016    XYZ      14.1269
       YYZ      -0.0003    XZZ      -0.0010    YZZ      -0.0877
       ZZZ      -0.0004
    Hexadecapole Moments (Debye-Ang^3)
      XXXX   -2689.9416   XXXY      -0.0009   XXYY    -566.6215
      XYYY      -0.0023   YYYY    -821.9099   XXXZ    -137.6781
      XXYZ       0.0031   XYYZ       9.1180   YYYZ       0.0024
      XXZZ    -551.3414   XYZZ      -0.0002   YYZZ    -168.1123
      XZZZ     -16.3955   YZZZ      -0.0010   ZZZZ    -337.0624
 -----------------------------------------------------------------
 Calculating analytic gradient of the SCF energy
 Gradient of SCF Energy
            1           2           3           4           5           6
    1   0.0070893  -0.0070925   0.0098369  -0.0098333  -0.0107934   0.0107896
    2   0.0068407   0.0068427  -0.0196703  -0.0196679  -0.0032940  -0.0032936
    3  -0.0114575   0.0114558   0.0023883  -0.0023915  -0.0003843   0.0003848
            7           8           9          10          11          12
    1   0.0001167  -0.0001197   0.0007518  -0.0007506   0.0083415  -0.0083407
    2  -0.0007787  -0.0007798   0.0108330   0.0108274  -0.0003519  -0.0003524
    3  -0.0020195   0.0020209   0.0030565  -0.0030548  -0.0045873   0.0045871
           13          14          15          16          17          18
    1   0.0014663  -0.0014646   0.0028589  -0.0028591   0.0018809  -0.0018817
    2   0.0038937   0.0038949   0.0019449   0.0019439   0.0031063   0.0031054
    3   0.0024413  -0.0024417   0.0000531  -0.0000523   0.0006343  -0.0006341
           19          20          21          22          23          24
    1   0.0012030  -0.0012004  -0.0017909   0.0017902  -0.0017046   0.0017066
    2  -0.0012509  -0.0012523   0.0007941   0.0007942  -0.0020641  -0.0020653
    3  -0.0020088   0.0020087   0.0014463  -0.0014456  -0.0002363   0.0002362
 Max gradient component =       1.967E-02
 RMS gradient           =       5.619E-03
 Gradient time:  CPU 53.60 s  wall 6.99 s

 *****************************************************
             Starting BFGS Algorithm
 *****************************************************
            LIBOPT3 RUN PARAMETERS

  Geometry Optimization Coordinates :
	Delocalized Natural Internal Coordinates

  Step Length Selection Method :
	Eigenvector Following Algorithm

  Step Length Limiter :
	Root-Mean-Square of Gradient

  Convergence Criteria :
	Max Gradient Component    	3.00000000e-04
	Max Displacement Component	1.20000000e-03
	Absolute Energy Difference	1.00000000e-06

  Initial Hessian :
	Approximate Hessian - Model Internal Coordinate

  Type of Verification :
	Verify with final updated Hessian
 *****************************************************

	OPTIMIZATION CYCLE:	1

 Scaling Magnitude of Eigenvalues
 	Minimum: -25.00000000	 Maximum: 25.00000000
 66 Hessian Eigenvalues to form next step
   0.01201824   0.01201980   0.01992632   0.01992699   0.02160110
   0.02160207   0.02190270   0.02190379   0.02238861   0.02238883
   0.02253565   0.02253586   0.02270995   0.02271013   0.02272812
   0.02272865   0.02277190   0.02277208   0.02281981   0.02281981
   0.02813291   0.15999235   0.15999238   0.15999509   0.15999509
   0.15999665   0.15999667   0.15999827   0.15999828   0.15999962
   0.15999963   0.21998133   0.21998138   0.21999882   0.21999884
   0.23469210   0.23469215   0.24973232   0.24973265   0.25000000
   0.25000000   0.35644922   0.35645062   0.35709260   0.35709335
   0.35712053   0.35712239   0.35714059   0.35714425   0.35825304
   0.35825461   0.41114199   0.41115008   0.41362239   0.41363960
   0.41639379   0.41639597   0.44800466   0.44801152   0.45679090
   0.45679277   0.45902077   0.45902934   0.46096820   0.46096993
   0.80998468

 Minimum Search taking a RFO step
 Searching for Lambda that minimizes along all modes
	Value of Lambda   -0.01259426
	Norm  of Stepsize  0.54886006
	RMS   of Stepsize  0.06756000
Back transformation initial coordinates:
   1.1831
  -3.6394
  -0.0948
  -1.1832
  -3.6394
   0.0949
   2.8168
  -1.5053
   0.1347
  -2.8169
  -1.5053
  -0.1346
   2.2684
   0.5490
   1.7417
  -2.2685
   0.5487
  -1.7418
   5.0964
  -1.5089
  -1.2147
  -5.0965
  -1.5089
   1.2147
   3.9532
   2.5752
   1.9356
  -3.9531
   2.5751
  -1.9357
   6.7758
   0.5216
  -1.0165
  -6.7757
   0.5218
   1.0166
   6.2015
   2.5654
   0.5524
  -6.2013
   2.5655
  -0.5524
   0.5571
   0.5876
   2.8580
  -0.5572
   0.5873
  -2.8581
   5.5644
  -3.0862
  -2.4316
  -5.5646
  -3.0861
   2.4317
   3.5194
   4.1498
   3.1669
  -3.5192
   4.1496
  -3.1670
   8.5249
   0.5080
  -2.0766
  -8.5248
   0.5083
   2.0767
   7.5045
   4.1344
   0.7070
  -7.5042
   4.1346
  -0.7070

	Performing Iterative Coordinate Back-Transformation

	  Starting from Previous Position

	  iter:	0	rms: 4.0984444189e-01	maxdev: 1.1061406888e+00
	  iter:	1	rms: 4.8341089872e-02	maxdev: 1.3805103476e-01
	  iter:	2	rms: 6.2642596654e-04	maxdev: 1.3784383364e-03
	  iter:	3	rms: 1.5888279986e-07	maxdev: 3.2468369692e-07	 Success!

	Finished Iterative Coordinate Back-Transformation
 ----------------------------------------------------------------
             Standard Nuclear Orientation (Angstroms)
    I     Atom           X                Y                Z
 ----------------------------------------------------------------
    1      N       0.6205213600    -1.9105847123    -0.0370201368
    2      N      -0.6205459730    -1.9105793249     0.0370467979
    3      C       1.4233742699    -0.7460787948     0.1353230760
    4      C      -1.4233898517    -0.7460735526    -0.1353259646
    5      C       1.2781798387     0.1536376548     1.2007562640
    6      C      -1.2782396568     0.1535644480    -1.2008317366
    7      C       2.5090995601    -0.6242468858    -0.7293085322
    8      C      -2.5090557722    -0.6241492885     0.7293671075
    9      C       2.1874894358     1.1914417705     1.3572811096
   10      C      -2.1875135576     1.1914017938    -1.3573565772
   11      C       3.4027252493     0.4327790707    -0.5832034912
   12      C      -3.4026447970     0.4329076647     0.5832581824
   13      C       3.2421428376     1.3461347102     0.4559353390
   14      C      -3.2420928853     1.3461986082    -0.4559427427
   15      H       0.4736928699     0.0310701890     1.9179746847
   16      H      -0.4738127024     0.0309074889    -1.9181019878
   17      H       2.6416284462    -1.3549936216    -1.5220417524
   18      H      -2.6415624756    -1.3548412679     1.5221538129
   19      H       2.0720893416     1.8832339911     2.1862344392
   20      H      -2.0721401301     1.8831351026    -2.1863629279
   21      H       4.2353681860     0.5311913831    -1.2728381176
   22      H      -4.2352372023     0.5313976013     1.2729427094
   23      H       3.9480288502     2.1625708314     0.5781598632
   24      H      -3.9479449654     2.1626653239    -0.5781592537
 ----------------------------------------------------------------
 Molecular Point Group                 C1    NOp =  1
 Largest Abelian Subgroup              C1    NOp =  1
 Nuclear Repulsion Energy =         786.68060965 hartrees
 There are       48 alpha and       48 beta electrons
 Applying Cartesian multipole field
    Component          Value
    ---------          -----
     (2,0,0)        1.00000E-11
     (0,2,0)        2.00000E-11
     (0,0,2)       -3.00000E-11
 Nucleus-field energy     = 1.9715678705e-08 hartrees
 Requested basis set is 6-31+G(d)
 There are 90 shells and 286 basis functions
 A cutoff of  1.0D-12 yielded   3488 shell pairs
 There are     37247 function pairs
 Smallest overlap matrix eigenvalue = 2.56E-06
 Guess MOs from SCF MO coefficient file

 -----------------------------------------------------------------------
  General SCF calculation program by
  Eric Jon Sundstrom, Paul Horn, Yuezhi Mao, Dmitri Zuev, Alec White,
  David Stuck, Shaama M.S., Shane Yost, Joonho Lee, David Small,
  Daniel Levine, Susi Lehtola, Hugh Burton, Evgeny Epifanovsky,
  Bang C. Huynh
 -----------------------------------------------------------------------
 Exchange:     0.2220 Hartree-Fock + 1.0000 wB97X-D + LR-HF
 Correlation:  1.0000 wB97X-D
 Using SG-2 standard quadrature grid
 Dispersion:   Grimme D
 A restricted SCF calculation will be
 performed using DIIS
 SCF converges when DIIS error is below 1.0e-08
 User-specified cutoff of 10e-12
 used for neglect of 2-electron integrals.
 A cutoff of 10e-12
 used for neglect of overlap integrals.
 Incremental Fock algorithm is on at the start.
 ---------------------------------------
  Cycle       Energy         DIIS error
 ---------------------------------------
    1    -572.1958813267      4.13e-03  
    2    -572.5187076160      1.02e-03  
    3    -572.5375250097      8.43e-04  
    4    -572.5452153238      1.39e-04  
    5    -572.5457317884      7.20e-05  
    6    -572.5458081088      2.28e-05  
    7    -572.5458166844      1.01e-05  
    8    -572.5458184522      2.29e-06  
    9    -572.5458186790      7.97e-07  
   10    -572.5458187144      3.91e-07  
   11    -572.5458187187      1.27e-07  
   12    -572.5458187191      6.57e-08  
   13    -572.5458187192      2.51e-08  
   14    -572.5458187192      8.07e-09  Convergence criterion met
 ---------------------------------------
 SCF time:   CPU 201.50s  wall 26.00s 
 SCF   energy =  -572.54581872
 Total energy =  -572.54581872
 Integrated density by DFT XC:
   Number of electrons = 96
   Numerical integral  =    95.996911202777
   Relative error      =     0.0032174971 %
 
 --------------------------------------------------------------
 
                    Orbital Energies (a.u.)
 --------------------------------------------------------------
 
 Alpha MOs
 -- Occupied --
-14.5200 -14.5195 -10.3484 -10.3483 -10.3205 -10.3205 -10.3184 -10.3184
-10.3177 -10.3177 -10.3162 -10.3162 -10.3161 -10.3161  -1.1524  -0.9832
 -0.9704  -0.9028  -0.8633  -0.8614  -0.8614  -0.7834  -0.7292  -0.7166
 -0.7154  -0.6712  -0.6476  -0.6003  -0.5887  -0.5673  -0.5636  -0.5438
 -0.5370  -0.5222  -0.5221  -0.5083  -0.4894  -0.4626  -0.4598  -0.4570
 -0.4537  -0.4349  -0.4321  -0.3553  -0.3483  -0.3393  -0.3385  -0.2893
 -- Virtual --
 -0.0158   0.0429   0.0457   0.0569   0.0624   0.0732   0.0768   0.0784
  0.0842   0.0904   0.0960   0.1017   0.1049   0.1151   0.1169   0.1236
  0.1286   0.1300   0.1448   0.1473   0.1603   0.1624   0.1700   0.1799
  0.1805   0.1853   0.1861   0.1932   0.1966   0.1969   0.2077   0.2080
  0.2147   0.2209   0.2252   0.2277   0.2403   0.2408   0.2412   0.2453
  0.2476   0.2512   0.2575   0.2643   0.2702   0.2755   0.2795   0.2797
  0.2858   0.2874   0.2926   0.2980   0.3003   0.3060   0.3109   0.3118
  0.3160   0.3217   0.3239   0.3295   0.3372   0.3573   0.3576   0.3586
  0.3653   0.3710   0.3746   0.3757   0.3868   0.3910   0.3957   0.4092
  0.4141   0.4201   0.4291   0.4320   0.4406   0.4468   0.4585   0.4673
  0.4697   0.4834   0.4891   0.5795   0.6429   0.6547   0.6894   0.6981
  0.6988   0.7168   0.7405   0.7597   0.7610   0.7766   0.7981   0.8024
  0.8113   0.8135   0.8213   0.8276   0.8315   0.8333   0.8581   0.8623
  0.8645   0.8832   0.8912   0.8917   0.8971   0.9408   0.9596   0.9609
  0.9809   0.9908   1.0159   1.0194   1.0306   1.0344   1.0410   1.0522
  1.0592   1.0741   1.0811   1.1012   1.1132   1.1162   1.1240   1.1404
  1.1599   1.1764   1.1823   1.1868   1.1946   1.1987   1.2175   1.2177
  1.2605   1.2647   1.2721   1.2893   1.3005   1.3070   1.3226   1.3312
  1.3650   1.3796   1.3887   1.4046   1.4689   1.4802   1.5038   1.5180
  1.5219   1.5282   1.5460   1.5565   1.5662   1.5666   1.5775   1.5811
  1.5865   1.5879   1.6727   1.7404   1.7494   1.8254   1.8738   1.9169
  1.9251   1.9357   1.9531   1.9677   2.0075   2.0357   2.0394   2.0618
  2.0652   2.0704   2.0934   2.1186   2.1906   2.1949   2.1991   2.2194
  2.2248   2.2353   2.2356   2.2484   2.2542   2.2597   2.3235   2.3284
  2.3412   2.3790   2.3822   2.3885   2.4221   2.4355   2.4886   2.5369
  2.6123   2.6423   2.6888   2.7042   2.7103   2.7104   2.7206   2.7578
  2.7631   2.8130   2.8284   2.8364   2.8451   2.8596   2.8708   2.9037
  2.9189   2.9862   3.0301   3.1624   3.1879   3.3589   3.4997   3.5178
  4.2204   4.3397   4.3411   4.3614   4.3631   4.4300   4.4314   4.4650
  4.4825   4.5190   4.5371   4.5798   4.8090   4.8296
 --------------------------------------------------------------
 
          Ground-State Mulliken Net Atomic Charges

     Atom                 Charge (a.u.)
  ----------------------------------------
      1 N                    -0.006276
      2 N                    -0.006300
      3 C                    -0.330724
      4 C                    -0.330685
      5 C                     0.203073
      6 C                     0.202981
      7 C                    -0.104876
      8 C                    -0.104890
      9 C                    -0.394204
     10 C                    -0.394132
     11 C                    -0.238753
     12 C                    -0.238744
     13 C                    -0.218108
     14 C                    -0.218131
     15 H                     0.224486
     16 H                     0.224484
     17 H                     0.225643
     18 H                     0.225642
     19 H                     0.214591
     20 H                     0.214591
     21 H                     0.213672
     22 H                     0.213672
     23 H                     0.211494
     24 H                     0.211494
  ----------------------------------------
  Sum of atomic charges =     0.000000

 -----------------------------------------------------------------
                    Cartesian Multipole Moments
 -----------------------------------------------------------------
    Charge (ESU x 10^10)
                -0.0000
    Dipole Moment (Debye)
         X       0.0001      Y       3.3519      Z      -0.0000
       Tot       3.3519
    Quadrupole Moments (Debye-Ang)
        XX     -72.8316     XY      -0.0005     YY     -87.4891
        XZ      -5.0347     YZ       0.0004     ZZ     -75.5939
    Octopole Moments (Debye-Ang^2)
       XXX       0.0047    XXY      26.3200    XYY      -0.0002
       YYY      26.0667    XXZ       0.0001    XYZ      14.3873
       YYZ      -0.0001    XZZ      -0.0022    YZZ       1.7180
       ZZZ      -0.0006
    Hexadecapole Moments (Debye-Ang^3)
      XXXX   -2641.8303   XXXY       0.0079   XXYY    -538.6433
      XYYY       0.0102   YYYY    -764.9924   XXXZ    -180.7132
      XXYZ       0.0028   XYYZ      -5.8299   YYYZ      -0.0005
      XXZZ    -528.4264   XYZZ       0.0023   YYZZ    -176.1553
      XZZZ     -78.7994   YZZZ      -0.0037   ZZZZ    -454.6412
 -----------------------------------------------------------------
 Calculating analytic gradient of the SCF energy
 Gradient of SCF Energy
            1           2           3           4           5           6
    1   0.0020547  -0.0020537  -0.0006894   0.0006898   0.0044651  -0.0044651
    2   0.0042343   0.0042364  -0.0061440  -0.0061455   0.0035426   0.0035425
    3  -0.0180783   0.0180789   0.0076126  -0.0076120   0.0008652  -0.0008656
            7           8           9          10          11          12
    1  -0.0032024   0.0032019  -0.0025936   0.0025923   0.0005859  -0.0005854
    2  -0.0024331  -0.0024341  -0.0003752  -0.0003741   0.0008465   0.0008469
    3   0.0024009  -0.0024007   0.0020684  -0.0020685   0.0005061  -0.0005060
           13          14          15          16          17          18
    1  -0.0000309   0.0000310   0.0019038  -0.0019043   0.0001170  -0.0001170
    2  -0.0007946  -0.0007945   0.0007985   0.0007980   0.0005048   0.0005049
    3  -0.0013584   0.0013583   0.0008445  -0.0008444  -0.0004946   0.0004942
           19          20          21          22          23          24
    1   0.0001238  -0.0001234  -0.0001497   0.0001495   0.0001131  -0.0001129
    2   0.0000323   0.0000323  -0.0003457  -0.0003458   0.0001333   0.0001336
    3  -0.0000680   0.0000678   0.0002831  -0.0002834  -0.0001985   0.0001986
 Max gradient component =       1.808E-02
 RMS gradient           =       3.805E-03
 Gradient time:  CPU 51.90 s  wall 6.53 s

     Step 1	:
        Energy is -572.5458187192
                            Maximum         Tolerance       Converged?
         Gradient           2.46053789e-02	3.00000000e-04	false
         Displacement       3.03288846e-01	1.20000000e-03	false
         Energy change      3.70024429e-03	1.00000000e-06	false


	OPTIMIZATION CYCLE:	2

 Scaling Magnitude of Eigenvalues
 	Minimum: -25.00000000	 Maximum: 25.00000000
 66 Hessian Eigenvalues to form next step
   0.01201902   0.01241588   0.01765270   0.01992665   0.02157870
   0.02160159   0.02184254   0.02190325   0.02238453   0.02238872
   0.02247339   0.02253576   0.02270862   0.02271005   0.02272755
   0.02272846   0.02276666   0.02277199   0.02281981   0.02282007
   0.06688516   0.14585912   0.15999236   0.15999496   0.15999509
   0.15999666   0.15999741   0.15999828   0.15999896   0.15999962
   0.16038300   0.18908791   0.21998136   0.21999883   0.22004862
   0.22062704   0.23469213   0.23620622   0.24973248   0.25000000
   0.30686881   0.35642120   0.35644993   0.35667509   0.35709297
   0.35710602   0.35712146   0.35714242   0.35731514   0.35825382
   0.35828695   0.40538177   0.41114604   0.41363093   0.41442006
   0.41639488   0.41739087   0.44348927   0.44800809   0.45679183
   0.45769731   0.45902507   0.46037598   0.46096907   0.47303327
   0.78952131

 Minimum Search taking a RFO step
 Searching for Lambda that minimizes along all modes
	Value of Lambda   -0.01205809
	Norm  of Stepsize  0.48346607
	RMS   of Stepsize  0.05951056
Back transformation initial coordinates:
   1.1726
  -3.6105
  -0.0700
  -1.1727
  -3.6105
   0.0700
   2.6898
  -1.4099
   0.2557
  -2.6898
  -1.4099
  -0.2557
   2.4154
   0.2903
   2.2691
  -2.4155
   0.2902
  -2.2692
   4.7415
  -1.1797
  -1.3782
  -4.7414
  -1.1795
   1.3783
   4.1338
   2.2515
   2.5649
  -4.1338
   2.2514
  -2.5650
   6.4302
   0.8178
  -1.1021
  -6.4301
   0.8181
   1.1022
   6.1268
   2.5438
   0.8616
  -6.1267
   2.5439
  -0.8616
   0.8951
   0.0587
   3.6244
  -0.8954
   0.0584
  -3.6247
   4.9920
  -2.5606
  -2.8762
  -4.9918
  -2.5603
   2.8765
   3.9157
   3.5588
   4.1314
  -3.9158
   3.5586
  -4.1316
   8.0037
   1.0038
  -2.4053
  -8.0034
   1.0042
   2.4055
   7.4607
   4.0867
   1.0926
  -7.4605
   4.0868
  -1.0926

	Performing Iterative Coordinate Back-Transformation

	  Starting from Previous Position

	  iter:	0	rms: 4.1208285232e-01	maxdev: 9.6480681126e-01
	  iter:	1	rms: 5.7202986125e-02	maxdev: 1.1165482396e-01
	  iter:	2	rms: 1.2411032862e-03	maxdev: 2.6348208025e-03
	  iter:	3	rms: 1.3860939519e-06	maxdev: 3.3816473047e-06
	  iter:	4	rms: 0.0000000000e+00	maxdev: 0.0000000000e+00	 Success!

	Finished Iterative Coordinate Back-Transformation
 ----------------------------------------------------------------
             Standard Nuclear Orientation (Angstroms)
    I     Atom           X                Y                Z
 ----------------------------------------------------------------
    1      N       0.6123760454    -2.0390226792     0.0523791348
    2      N      -0.6123850425    -2.0389928646    -0.0523485281
    3      C       1.2946790211    -0.7897772781     0.0876621002
    4      C      -1.2946587521    -0.7897230404    -0.0876713180
    5      C       0.9887100380     0.2393153888     0.9710803000
    6      C      -0.9887734878     0.2393060163    -0.9712082135
    7      C       2.4599234654    -0.7555419126    -0.6651730397
    8      C      -2.4598212398    -0.7554013538     0.6652804436
    9      C       1.8353028525     1.3267327532     1.0559460275
   10      C      -1.8353706228     1.3267352964    -1.0560689377
   11      C       3.2786705190     0.3604488841    -0.6080682225
   12      C      -3.2785625695     0.3605944765     0.6081761918
   13      C       2.9707814848     1.4088209309     0.2503425402
   14      C      -2.9707633380     1.4088968189    -0.2503490146
   15      H       0.1051890395     0.1605909406     1.6026696588
   16      H      -0.1053296504     0.1605196521    -1.6029001253
   17      H       2.6982638405    -1.6128538002    -1.2938077621
   18      H      -2.6981058265    -1.6126573397     1.2940094573
   19      H       1.5990095672     2.1260193151     1.7572247973
   20      H      -1.5991636524     2.1259681664    -1.7574390470
   21      H       4.1795917724     0.3947402821    -1.2190932056
   22      H      -4.1794170229     0.3949404885     1.2192939927
   23      H       3.6268800481     2.2764769941     0.3156284342
   24      H      -3.6268662133     2.2765540482    -0.3156254993
 ----------------------------------------------------------------
 Molecular Point Group                 C1    NOp =  1
 Largest Abelian Subgroup              C1    NOp =  1
 Nuclear Repulsion Energy =         810.05724639 hartrees
 There are       48 alpha and       48 beta electrons
 Applying Cartesian multipole field
    Component          Value
    ---------          -----
     (2,0,0)        1.00000E-11
     (0,2,0)        2.00000E-11
     (0,0,2)       -3.00000E-11
 Nucleus-field energy     = 2.1278844430e-08 hartrees
 Requested basis set is 6-31+G(d)
 There are 90 shells and 286 basis functions
 A cutoff of  1.0D-12 yielded   3577 shell pairs
 There are     38198 function pairs
 Smallest overlap matrix eigenvalue = 2.30E-06
 Guess MOs from SCF MO coefficient file

 -----------------------------------------------------------------------
  General SCF calculation program by
  Eric Jon Sundstrom, Paul Horn, Yuezhi Mao, Dmitri Zuev, Alec White,
  David Stuck, Shaama M.S., Shane Yost, Joonho Lee, David Small,
  Daniel Levine, Susi Lehtola, Hugh Burton, Evgeny Epifanovsky,
  Bang C. Huynh
 -----------------------------------------------------------------------
 Exchange:     0.2220 Hartree-Fock + 1.0000 wB97X-D + LR-HF
 Correlation:  1.0000 wB97X-D
 Using SG-2 standard quadrature grid
 Dispersion:   Grimme D
 A restricted SCF calculation will be
 performed using DIIS
 SCF converges when DIIS error is below 1.0e-08
 User-specified cutoff of 10e-12
 used for neglect of 2-electron integrals.
 A cutoff of 10e-12
 used for neglect of overlap integrals.
 Incremental Fock algorithm is on at the start.
 ---------------------------------------
  Cycle       Energy         DIIS error
 ---------------------------------------
    1    -572.2393801347      3.89e-03  
    2    -572.5038081618      1.37e-03  
    3    -572.5218473393      1.14e-03  
    4    -572.5362329275      1.66e-04  
    5    -572.5367236164      9.69e-05  
    6    -572.5368612539      2.95e-05  
    7    -572.5368742135      9.71e-06  
    8    -572.5368764069      3.08e-06  
    9    -572.5368766061      1.52e-06  
   10    -572.5368766616      4.03e-07  
   11    -572.5368766698      1.33e-07  
   12    -572.5368766705      5.76e-08  
   13    -572.5368766706      1.89e-08  
   14    -572.5368766706      6.38e-09  Convergence criterion met
 ---------------------------------------
 SCF time:   CPU 213.85s  wall 27.00s 
 SCF   energy =  -572.53687667
 Total energy =  -572.53687667
 Integrated density by DFT XC:
   Number of electrons = 96
   Numerical integral  =    95.995174912498
   Relative error      =     0.0050261328 %
 
 --------------------------------------------------------------
 
                    Orbital Energies (a.u.)
 --------------------------------------------------------------
 
 Alpha MOs
 -- Occupied --
-14.5159 -14.5153 -10.3407 -10.3407 -10.3180 -10.3180 -10.3178 -10.3178
-10.3172 -10.3172 -10.3170 -10.3170 -10.3148 -10.3148  -1.1667  -0.9834
 -0.9763  -0.9000  -0.8700  -0.8637  -0.8615  -0.7796  -0.7289  -0.7226
 -0.7147  -0.6723  -0.6467  -0.5997  -0.5909  -0.5696  -0.5678  -0.5470
 -0.5343  -0.5254  -0.5235  -0.5029  -0.4903  -0.4680  -0.4635  -0.4553
 -0.4548  -0.4335  -0.4321  -0.3597  -0.3467  -0.3401  -0.3306  -0.3004
 -- Virtual --
 -0.0097   0.0351   0.0488   0.0618   0.0634   0.0728   0.0763   0.0802
  0.0844   0.0921   0.0929   0.1026   0.1052   0.1124   0.1149   0.1261
  0.1281   0.1380   0.1442   0.1490   0.1563   0.1646   0.1702   0.1778
  0.1794   0.1884   0.1889   0.1959   0.1998   0.2046   0.2047   0.2092
  0.2160   0.2189   0.2254   0.2289   0.2408   0.2409   0.2482   0.2492
  0.2526   0.2624   0.2627   0.2673   0.2723   0.2768   0.2813   0.2824
  0.2877   0.2945   0.2959   0.2986   0.3022   0.3027   0.3126   0.3168
  0.3213   0.3237   0.3320   0.3322   0.3468   0.3511   0.3537   0.3623
  0.3678   0.3682   0.3722   0.3860   0.3922   0.3993   0.3995   0.4037
  0.4126   0.4278   0.4296   0.4389   0.4472   0.4510   0.4664   0.4708
  0.4860   0.4953   0.5149   0.5752   0.6377   0.6566   0.6926   0.7057
  0.7083   0.7240   0.7620   0.7661   0.7790   0.7839   0.7935   0.8104
  0.8117   0.8207   0.8291   0.8339   0.8363   0.8410   0.8469   0.8591
  0.8794   0.8867   0.8871   0.9107   0.9378   0.9582   0.9637   0.9648
  0.9875   0.9903   1.0124   1.0250   1.0267   1.0402   1.0448   1.0534
  1.0645   1.0798   1.0877   1.0917   1.1114   1.1206   1.1387   1.1443
  1.1533   1.1767   1.1805   1.1931   1.1976   1.2002   1.2232   1.2253
  1.2311   1.2395   1.2744   1.2827   1.3085   1.3239   1.3353   1.3561
  1.3654   1.3974   1.4218   1.4571   1.4723   1.4788   1.5098   1.5363
  1.5394   1.5486   1.5620   1.5706   1.5787   1.5871   1.5923   1.6306
  1.6358   1.6447   1.6884   1.7287   1.7373   1.8363   1.8892   1.9243
  1.9433   1.9655   1.9841   2.0154   2.0180   2.0466   2.0500   2.0668
  2.0765   2.0864   2.0998   2.1240   2.1924   2.2092   2.2201   2.2235
  2.2468   2.2470   2.2534   2.2666   2.2732   2.2857   2.3373   2.3404
  2.3555   2.3805   2.4019   2.4162   2.4483   2.4917   2.5057   2.5776
  2.6436   2.6747   2.6785   2.7091   2.7132   2.7334   2.7623   2.7701
  2.7756   2.8240   2.8341   2.8435   2.8463   2.8581   2.9148   2.9344
  2.9346   2.9744   3.0401   3.1936   3.2034   3.3387   3.5137   3.5306
  4.2622   4.3614   4.3630   4.3642   4.3783   4.4311   4.4654   4.4734
  4.5114   4.5367   4.5549   4.6546   4.8029   4.8572
 --------------------------------------------------------------
 
          Ground-State Mulliken Net Atomic Charges

     Atom                 Charge (a.u.)
  ----------------------------------------
      1 N                     0.040969
      2 N                     0.040949
      3 C                    -0.691469
      4 C                    -0.691523
      5 C                     0.439239
      6 C                     0.439114
      7 C                    -0.061164
      8 C                    -0.061106
      9 C                    -0.366839
     10 C                    -0.366798
     11 C                    -0.261131
     12 C                    -0.261105
     13 C                    -0.210948
     14 C                    -0.210962
     15 H                     0.243849
     16 H                     0.243838
     17 H                     0.229990
     18 H                     0.229987
     19 H                     0.211716
     20 H                     0.211716
     21 H                     0.213351
     22 H                     0.213351
     23 H                     0.212487
     24 H                     0.212487
  ----------------------------------------
  Sum of atomic charges =     0.000000

 -----------------------------------------------------------------
                    Cartesian Multipole Moments
 -----------------------------------------------------------------
    Charge (ESU x 10^10)
                 0.0000
    Dipole Moment (Debye)
         X       0.0001      Y       3.4786      Z      -0.0000
       Tot       3.4786
    Quadrupole Moments (Debye-Ang)
        XX     -73.0587     XY      -0.0008     YY     -86.0209
        XZ      -6.1384     YZ       0.0001     ZZ     -79.0269
    Octopole Moments (Debye-Ang^2)
       XXX       0.0042    XXY      17.6416    XYY       0.0001
       YYY      34.0409    XXZ       0.0006    XYZ      11.8371
       YYZ      -0.0006    XZZ      -0.0030    YZZ      -0.2973
       ZZZ      -0.0005
    Hexadecapole Moments (Debye-Ang^3)
      XXXX   -2272.6778   XXXY       0.0144   XXYY    -493.2762
      XYYY       0.0207   YYYY    -855.8763   XXXZ    -100.4386
      XXYZ       0.0034   XYYZ      10.5130   YYYZ       0.0038
      XXZZ    -462.0951   XYZZ       0.0061   YYZZ    -176.7046
      XZZZ       1.8043   YZZZ      -0.0010   ZZZZ    -354.9889
 -----------------------------------------------------------------
 Calculating analytic gradient of the SCF energy
 Gradient of SCF Energy
            1           2           3           4           5           6
    1  -0.0126560   0.0126608  -0.0255972   0.0255951  -0.0011351   0.0011394
    2   0.0029674   0.0029683   0.0094668   0.0094624   0.0042810   0.0042821
    3   0.0076310  -0.0076277  -0.0116176   0.0116230  -0.0112551   0.0112516
            7           8           9          10          11          12
    1   0.0006476  -0.0006449   0.0001279  -0.0001309  -0.0078843   0.0078832
    2   0.0026693   0.0026698  -0.0093720  -0.0093635  -0.0034716  -0.0034712
    3   0.0035589  -0.0035597  -0.0035541   0.0035533   0.0056649  -0.0056656
           13          14          15          16          17          18
    1  -0.0023510   0.0023498  -0.0049553   0.0049530  -0.0006608   0.0006617
    2  -0.0035283  -0.0035291  -0.0030700  -0.0030691  -0.0022373  -0.0022365
    3  -0.0009892   0.0009894  -0.0000342   0.0000323  -0.0014414   0.0014404
           19          20          21          22          23          24
    1  -0.0013813   0.0013789   0.0012934  -0.0012925   0.0017419  -0.0017435
    2   0.0010347   0.0010359  -0.0007726  -0.0007723   0.0020271   0.0020286
    3   0.0015025  -0.0015028  -0.0013801   0.0013795   0.0001533  -0.0001528
 Max gradient component =       2.560E-02
 RMS gradient           =       6.577E-03
 Gradient time:  CPU 54.97 s  wall 6.93 s

     Step 2	:
        Energy is -572.5368766706
                            Maximum         Tolerance       Converged?
         Gradient           1.40620033e-01	3.00000000e-04	false
         Displacement       2.43094886e-01	1.20000000e-03	false
         Energy change      8.94204855e-03	1.00000000e-06	false


	OPTIMIZATION CYCLE:	3

 Scaling Magnitude of Eigenvalues
 	Minimum: -25.00000000	 Maximum: 25.00000000
 66 Hessian Eigenvalues to form next step
   0.01201902   0.01249167   0.01992665   0.02016501   0.02160158
   0.02164771   0.02190324   0.02203530   0.02237867   0.02238872
   0.02248279   0.02253576   0.02271002   0.02271086   0.02272751
   0.02272846   0.02277199   0.02279564   0.02281981   0.02282048
   0.08047804   0.15589322   0.15999236   0.15999509   0.15999527
   0.15999666   0.15999828   0.15999861   0.15999962   0.16002663
   0.16019838   0.21873106   0.21998136   0.21999883   0.22002698
   0.23197383   0.23469213   0.24973248   0.25000000   0.25589406
   0.35481642   0.35644992   0.35660779   0.35709297   0.35710436
   0.35712146   0.35714196   0.35714699   0.35796905   0.35825383
   0.40431326   0.40582741   0.41114604   0.41363101   0.41637169
   0.41639494   0.44332832   0.44800809   0.45673378   0.45679184
   0.45773149   0.45902507   0.46096888   0.46097267   0.70053729
   1.01685227

 Minimum Search taking a RFO step
 Searching for Lambda that minimizes along all modes
	Value of Lambda   -0.03200589
	Norm  of Stepsize  0.21354557
	RMS   of Stepsize  0.02628564
Back transformation initial coordinates:
   1.1572
  -3.8532
   0.0990
  -1.1572
  -3.8531
  -0.0989
   2.4466
  -1.4925
   0.1657
  -2.4466
  -1.4924
  -0.1657
   1.8684
   0.4522
   1.8351
  -1.8685
   0.4522
  -1.8353
   4.6486
  -1.4278
  -1.2570
  -4.6484
  -1.4275
   1.2572
   3.4682
   2.5072
   1.9954
  -3.4683
   2.5072
  -1.9957
   6.1958
   0.6811
  -1.1491
  -6.1956
   0.6814
   1.1493
   5.6140
   2.6623
   0.4731
  -5.6139
   2.6624
  -0.4731
   0.1988
   0.3035
   3.0286
  -0.1990
   0.3033
  -3.0290
   5.0990
  -3.0479
  -2.4449
  -5.0987
  -3.0475
   2.4453
   3.0217
   4.0176
   3.3207
  -3.0220
   4.0175
  -3.3211
   7.8983
   0.7460
  -2.3038
  -7.8980
   0.7463
   2.3041
   6.8538
   4.3019
   0.5965
  -6.8538
   4.3021
  -0.5964

	Performing Iterative Coordinate Back-Transformation

	  Starting from Previous Position

	  iter:	0	rms: 3.3377868307e-01	maxdev: 8.6882396779e-01
	  iter:	1	rms: 1.3705211685e-02	maxdev: 3.4916451230e-02
	  iter:	2	rms: 3.5373315978e-05	maxdev: 7.4738571496e-05
	  iter:	3	rms: 0.0000000000e+00	maxdev: 0.0000000000e+00	 Success!

	Finished Iterative Coordinate Back-Transformation
 ----------------------------------------------------------------
             Standard Nuclear Orientation (Angstroms)
    I     Atom           X                Y                Z
 ----------------------------------------------------------------
    1      N       0.6202024092    -1.9007300412     0.0514796355
    2      N      -0.6202323154    -1.9007215202    -0.0514327526
    3      C       1.4336114059    -0.7239386087     0.1318587999
    4      C      -1.4336173081    -0.7239166002    -0.1318425572
    5      C       1.2529161771     0.2653006214     1.1013907410
    6      C      -1.2529402933     0.2652547934    -1.1014477472
    7      C       2.5749080784    -0.7159379353    -0.6712320233
    8      C      -2.5748739937    -0.7158317580     0.6713027814
    9      C       2.1900475501     1.2831302229     1.2206821195
   10      C      -2.1900524098     1.2831015612    -1.2207627533
   11      C       3.4854507536     0.3310393128    -0.5746502068
   12      C      -3.4853938360     0.3311626637     0.5746947613
   13      C       3.2955296814     1.3353740989     0.3709898255
   14      C      -3.2954941725     1.3354291064    -0.3710218534
   15      H       0.3970782673     0.2213441813     1.7685618592
   16      H      -0.3971366729     0.2212260266    -1.7686601709
   17      H       2.7283673151    -1.5332531180    -1.3710285725
   18      H      -2.7283212000    -1.5330954216     1.3711616820
   19      H       2.0502070051     2.0463222016     1.9816441463
   20      H      -2.0502354049     2.0462381975    -1.9817846885
   21      H       4.3595797204     0.3455814205    -1.2204617777
   22      H      -4.3594915639     0.3457696265     1.2205467779
   23      H       4.0177509286     2.1418866324     0.4657648375
   24      H      -4.0176998461     2.1419545199    -0.4658126991
 ----------------------------------------------------------------
 Molecular Point Group                 C1    NOp =  1
 Largest Abelian Subgroup              C1    NOp =  1
 Nuclear Repulsion Energy =         785.62540565 hartrees
 There are       48 alpha and       48 beta electrons
 Applying Cartesian multipole field
    Component          Value
    ---------          -----
     (2,0,0)        1.00000E-11
     (0,2,0)        2.00000E-11
     (0,0,2)       -3.00000E-11
 Nucleus-field energy     = 2.2100735355e-08 hartrees
 Requested basis set is 6-31+G(d)
 There are 90 shells and 286 basis functions
 A cutoff of  1.0D-12 yielded   3484 shell pairs
 There are     37165 function pairs
 Smallest overlap matrix eigenvalue = 2.73E-06
 Guess MOs from SCF MO coefficient file

 -----------------------------------------------------------------------
  General SCF calculation program by
  Eric Jon Sundstrom, Paul Horn, Yuezhi Mao, Dmitri Zuev, Alec White,
  David Stuck, Shaama M.S., Shane Yost, Joonho Lee, David Small,
  Daniel Levine, Susi Lehtola, Hugh Burton, Evgeny Epifanovsky,
  Bang C. Huynh
 -----------------------------------------------------------------------
 Exchange:     0.2220 Hartree-Fock + 1.0000 wB97X-D + LR-HF
 Correlation:  1.0000 wB97X-D
 Using SG-2 standard quadrature grid
 Dispersion:   Grimme D
 A restricted SCF calculation will be
 performed using DIIS
 SCF converges when DIIS error is below 1.0e-08
 User-specified cutoff of 10e-12
 used for neglect of 2-electron integrals.
 A cutoff of 10e-12
 used for neglect of overlap integrals.
 Incremental Fock algorithm is on at the start.
 ---------------------------------------
  Cycle       Energy         DIIS error
 ---------------------------------------
    1    -572.4366420261      2.48e-03  
    2    -572.5410742679      4.78e-04  
    3    -572.5467978468      2.80e-04  
    4    -572.5476989055      9.39e-05  
    5    -572.5478602939      2.97e-05  
    6    -572.5478750287      8.89e-06  
    7    -572.5478767758      3.69e-06  
    8    -572.5478770435      1.00e-06  
    9    -572.5478770795      4.03e-07  
   10    -572.5478770869      2.32e-07  
   11    -572.5478770884      1.05e-07  
   12    -572.5478770887      5.04e-08  
   13    -572.5478770887      1.40e-08  
   14    -572.5478770887      3.87e-09  Convergence criterion met
 ---------------------------------------
 SCF time:   CPU 194.77s  wall 25.00s 
 SCF   energy =  -572.54787709
 Total energy =  -572.54787709
 Integrated density by DFT XC:
   Number of electrons = 96
   Numerical integral  =    95.997547462858
   Relative error      =     0.0025547262 %
 
 --------------------------------------------------------------
 
                    Orbital Energies (a.u.)
 --------------------------------------------------------------
 
 Alpha MOs
 -- Occupied --
-14.5197 -14.5192 -10.3472 -10.3471 -10.3197 -10.3197 -10.3185 -10.3185
-10.3183 -10.3183 -10.3173 -10.3173 -10.3169 -10.3169  -1.1484  -0.9832
 -0.9712  -0.9016  -0.8638  -0.8621  -0.8614  -0.7823  -0.7282  -0.7172
 -0.7159  -0.6710  -0.6468  -0.6003  -0.5890  -0.5658  -0.5638  -0.5445
 -0.5362  -0.5225  -0.5218  -0.5056  -0.4910  -0.4630  -0.4614  -0.4564
 -0.4538  -0.4343  -0.4325  -0.3502  -0.3490  -0.3377  -0.3369  -0.2963
 -- Virtual --
 -0.0099   0.0405   0.0475   0.0562   0.0625   0.0728   0.0747   0.0794
  0.0849   0.0898   0.0944   0.1018   0.1048   0.1137   0.1149   0.1247
  0.1263   0.1343   0.1435   0.1478   0.1585   0.1648   0.1671   0.1767
  0.1781   0.1876   0.1878   0.1935   0.1970   0.1974   0.2051   0.2082
  0.2126   0.2188   0.2211   0.2260   0.2395   0.2408   0.2443   0.2460
  0.2491   0.2519   0.2570   0.2674   0.2706   0.2755   0.2803   0.2815
  0.2873   0.2894   0.2967   0.2976   0.3005   0.3039   0.3135   0.3161
  0.3179   0.3237   0.3287   0.3290   0.3394   0.3476   0.3509   0.3566
  0.3649   0.3680   0.3751   0.3812   0.3900   0.3905   0.3996   0.4061
  0.4105   0.4207   0.4233   0.4370   0.4460   0.4474   0.4582   0.4766
  0.4767   0.4839   0.4901   0.5804   0.6350   0.6524   0.6859   0.6997
  0.7006   0.7118   0.7450   0.7561   0.7619   0.7866   0.7898   0.8023
  0.8116   0.8121   0.8209   0.8292   0.8336   0.8346   0.8533   0.8601
  0.8646   0.8878   0.8921   0.8936   0.9035   0.9451   0.9521   0.9574
  0.9844   0.9853   1.0147   1.0194   1.0273   1.0318   1.0332   1.0486
  1.0642   1.0746   1.0824   1.0918   1.1169   1.1234   1.1244   1.1312
  1.1594   1.1654   1.1828   1.1901   1.1969   1.2026   1.2106   1.2218
  1.2596   1.2727   1.2769   1.2772   1.2923   1.2954   1.3221   1.3443
  1.3671   1.3788   1.3851   1.4027   1.4623   1.4718   1.4979   1.5222
  1.5331   1.5375   1.5471   1.5518   1.5662   1.5829   1.5863   1.5881
  1.5906   1.5950   1.6537   1.7177   1.7388   1.8214   1.8775   1.9144
  1.9193   1.9340   1.9547   1.9888   2.0034   2.0371   2.0388   2.0483
  2.0601   2.0718   2.0883   2.1112   2.1909   2.1945   2.1991   2.2283
  2.2303   2.2344   2.2395   2.2426   2.2538   2.2574   2.3170   2.3331
  2.3399   2.3735   2.3845   2.3871   2.4117   2.4399   2.4698   2.5529
  2.6213   2.6582   2.6869   2.7001   2.7095   2.7125   2.7175   2.7515
  2.7639   2.8187   2.8276   2.8308   2.8352   2.8518   2.8836   2.9084
  2.9304   2.9590   3.0365   3.1884   3.1959   3.3336   3.4923   3.5235
  4.2133   4.3402   4.3438   4.3586   4.3705   4.4178   4.4265   4.4654
  4.4896   4.5166   4.5386   4.5848   4.7933   4.8358
 --------------------------------------------------------------
 
          Ground-State Mulliken Net Atomic Charges

     Atom                 Charge (a.u.)
  ----------------------------------------
      1 N                     0.017408
      2 N                     0.017401
      3 C                    -0.509295
      4 C                    -0.509304
      5 C                     0.325648
      6 C                     0.325575
      7 C                     0.035131
      8 C                     0.035153
      9 C                    -0.475367
     10 C                    -0.475326
     11 C                    -0.295428
     12 C                    -0.295420
     13 C                    -0.194034
     14 C                    -0.194042
     15 H                     0.227842
     16 H                     0.227840
     17 H                     0.227906
     18 H                     0.227905
     19 H                     0.213442
     20 H                     0.213442
     21 H                     0.214557
     22 H                     0.214557
     23 H                     0.212205
     24 H                     0.212205
  ----------------------------------------
  Sum of atomic charges =     0.000000

 -----------------------------------------------------------------
                    Cartesian Multipole Moments
 -----------------------------------------------------------------
    Charge (ESU x 10^10)
                -0.0000
    Dipole Moment (Debye)
         X       0.0001      Y       3.3480      Z      -0.0000
       Tot       3.3480
    Quadrupole Moments (Debye-Ang)
        XX     -71.4039     XY      -0.0005     YY     -86.6534
        XZ      -5.4385     YZ       0.0003     ZZ     -77.5580
    Octopole Moments (Debye-Ang^2)
       XXX       0.0026    XXY      22.0025    XYY       0.0003
       YYY      25.5108    XXZ       0.0000    XYZ      15.3308
       YYZ      -0.0005    XZZ      -0.0021    YZZ       0.6386
       ZZZ      -0.0007
    Hexadecapole Moments (Debye-Ang^3)
      XXXX   -2681.1081   XXXY       0.0074   XXYY    -553.4332
      XYYY       0.0124   YYYY    -780.0688   XXXZ    -167.7149
      XXYZ       0.0024   XYYZ      -2.3212   YYYZ       0.0033
      XXZZ    -542.8686   XYZZ       0.0032   YYZZ    -169.9296
      XZZZ     -57.3380   YZZZ      -0.0008   ZZZZ    -404.9022
 -----------------------------------------------------------------
 Calculating analytic gradient of the SCF energy
 Gradient of SCF Energy
            1           2           3           4           5           6
    1   0.0060688  -0.0060694  -0.0001937   0.0001937   0.0025341  -0.0025333
    2   0.0022701   0.0022695  -0.0006440  -0.0006449   0.0022251   0.0022246
    3   0.0080363  -0.0080363  -0.0047052   0.0047057   0.0000794  -0.0000789
            7           8           9          10          11          12
    1   0.0014629  -0.0014629  -0.0006086   0.0006091  -0.0007046   0.0007047
    2   0.0005063   0.0005066  -0.0035151  -0.0035142   0.0005215   0.0005216
    3   0.0024300  -0.0024301  -0.0004078   0.0004078   0.0014152  -0.0014152
           13          14          15          16          17          18
    1   0.0002453  -0.0002459   0.0002716  -0.0002710  -0.0003757   0.0003759
    2  -0.0006482  -0.0006484  -0.0005724  -0.0005726  -0.0005577  -0.0005575
    3  -0.0017301   0.0017299   0.0006122  -0.0006126  -0.0002226   0.0002224
           19          20          21          22          23          24
    1  -0.0002583   0.0002576   0.0004283  -0.0004282   0.0004270  -0.0004273
    2   0.0000590   0.0000589  -0.0000933  -0.0000932   0.0004489   0.0004493
    3   0.0003575  -0.0003577  -0.0003660   0.0003658  -0.0001062   0.0001065
 Max gradient component =       8.036E-03
 RMS gradient           =       2.174E-03
 Gradient time:  CPU 51.44 s  wall 6.47 s

     Step 3	:
        Energy is -572.5478770887
                            Maximum         Tolerance       Converged?
         Gradient           2.67521750e-02	3.00000000e-04	false
         Displacement       1.17108336e-01	1.20000000e-03	false
         Energy change      1.10004181e-02	1.00000000e-06	false


	OPTIMIZATION CYCLE:	4

 Scaling Magnitude of Eigenvalues
 	Minimum: -25.00000000	 Maximum: 25.00000000
 66 Hessian Eigenvalues to form next step
   0.01201902   0.01269696   0.01992665   0.01995990   0.02160158
   0.02166533   0.02190324   0.02198691   0.02237682   0.02238872
   0.02248228   0.02253576   0.02271002   0.02271092   0.02272749
   0.02272846   0.02277199   0.02278396   0.02281981   0.02282001
   0.07800240   0.15569696   0.15999236   0.15999250   0.15999509
   0.15999548   0.15999666   0.15999828   0.15999962   0.16001559
   0.16021059   0.21844031   0.21998136   0.21999883   0.22005828
   0.23213364   0.23469213   0.24973248   0.25000000   0.25755574
   0.35437764   0.35644991   0.35660645   0.35709297   0.35710531
   0.35712144   0.35713878   0.35714293   0.35799353   0.35825383
   0.40469490   0.40671935   0.41114604   0.41363101   0.41636616
   0.41639492   0.44314471   0.44800809   0.45515018   0.45679183
   0.45769827   0.45902507   0.46051338   0.46096907   0.71825258
   1.18550275

 Minimum Search taking a RFO step
 Searching for Lambda that minimizes along all modes
	Value of Lambda   -0.00391862
	Norm  of Stepsize  0.30980644
	RMS   of Stepsize  0.03813454
Back transformation initial coordinates:
   1.1720
  -3.5919
   0.0973
  -1.1721
  -3.5918
  -0.0972
   2.7091
  -1.3680
   0.2492
  -2.7091
  -1.3680
  -0.2491
   2.3677
   0.5013
   2.0813
  -2.3677
   0.5013
  -2.0814
   4.8659
  -1.3529
  -1.2684
  -4.8658
  -1.3527
   1.2686
   4.1386
   2.4248
   2.3068
  -4.1386
   2.4247
  -2.3069
   6.5865
   0.6256
  -1.0859
  -6.5864
   0.6258
   1.0860
   6.2276
   2.5235
   0.7011
  -6.2276
   2.5236
  -0.7011
   0.7504
   0.4183
   3.3421
  -0.7505
   0.4181
  -3.3423
   5.1559
  -2.8974
  -2.5909
  -5.1558
  -2.8971
   2.5911
   3.8743
   3.8670
   3.7448
  -3.8744
   3.8668
  -3.7450
   8.2384
   0.6531
  -2.3063
  -8.2382
   0.6534
   2.3065
   7.5924
   4.0476
   0.8802
  -7.5924
   4.0477
  -0.8803

	Performing Iterative Coordinate Back-Transformation

	  Starting from Previous Position

	  iter:	0	rms: 2.6182271265e-01	maxdev: 5.4639963860e-01
	  iter:	1	rms: 1.9723249143e-02	maxdev: 4.5802791259e-02
	  iter:	2	rms: 1.3597507220e-04	maxdev: 3.4525713540e-04
	  iter:	3	rms: 1.2198930455e-08	maxdev: 3.5314179843e-08	 Success!

	Finished Iterative Coordinate Back-Transformation
 ----------------------------------------------------------------
             Standard Nuclear Orientation (Angstroms)
    I     Atom           X                Y                Z
 ----------------------------------------------------------------
    1      N       0.6214076379    -2.0082163830     0.0011577077
    2      N      -0.6214472609    -2.0082110670    -0.0010960964
    3      C       1.3939834766    -0.8075879245     0.1404377019
    4      C      -1.3940023037    -0.8075760251    -0.1404085538
    5      C       1.1862131609     0.1075762509     1.1787761618
    6      C      -1.1862358884     0.1075191224    -1.1788050121
    7      C       2.4637169054    -0.6372518811    -0.7423388502
    8      C      -2.4637028007    -0.6371602337     0.7423933443
    9      C       2.0363748022     1.2029871333     1.3102173005
   10      C      -2.0363643889     1.2029479675    -1.3102819504
   11      C       3.2911858428     0.4769824658    -0.6213614491
   12      C      -3.2911392664     0.4770939434     0.6213777428
   13      C       3.0826759202     1.3959378478     0.4078288350
   14      C      -3.0826296719     1.3959848972    -0.4078708694
   15      H       0.3678406202    -0.0358867216     1.8763961480
   16      H      -0.3678900147    -0.0360148240    -1.8764416744
   17      H       2.6346584471    -1.3781193424    -1.5170120381
   18      H      -2.6346436156    -1.3779769165     1.5171158722
   19      H       1.8775189880     1.9096303085     2.1188684516
   20      H      -1.8775073904     1.9095393640    -2.1189779557
   21      H       4.1124913067     0.6158872493    -1.3173666134
   22      H      -4.1124181199     0.6160661282     1.3174014058
   23      H       3.7380767165     2.2542374384     0.5139530172
   24      H      -3.7380028273     2.2543013860    -0.5140224608
 ----------------------------------------------------------------
 Molecular Point Group                 C1    NOp =  1
 Largest Abelian Subgroup              C1    NOp =  1
 Nuclear Repulsion Energy =         792.85998886 hartrees
 There are       48 alpha and       48 beta electrons
 Applying Cartesian multipole field
    Component          Value
    ---------          -----
     (2,0,0)        1.00000E-11
     (0,2,0)        2.00000E-11
     (0,0,2)       -3.00000E-11
 Nucleus-field energy     = 1.9235634490e-08 hartrees
 Requested basis set is 6-31+G(d)
 There are 90 shells and 286 basis functions
 A cutoff of  1.0D-12 yielded   3519 shell pairs
 There are     37541 function pairs
 Smallest overlap matrix eigenvalue = 2.51E-06
 Guess MOs from SCF MO coefficient file

 -----------------------------------------------------------------------
  General SCF calculation program by
  Eric Jon Sundstrom, Paul Horn, Yuezhi Mao, Dmitri Zuev, Alec White,
  David Stuck, Shaama M.S., Shane Yost, Joonho Lee, David Small,
  Daniel Levine, Susi Lehtola, Hugh Burton, Evgeny Epifanovsky,
  Bang C. Huynh
 -----------------------------------------------------------------------
 Exchange:     0.2220 Hartree-Fock + 1.0000 wB97X-D + LR-HF
 Correlation:  1.0000 wB97X-D
 Using SG-2 standard quadrature grid
 Dispersion:   Grimme D
 A restricted SCF calculation will be
 performed using DIIS
 SCF converges when DIIS error is below 1.0e-08
 User-specified cutoff of 10e-12
 used for neglect of 2-electron integrals.
 A cutoff of 10e-12
 used for neglect of overlap integrals.
 Incremental Fock algorithm is on at the start.
 ---------------------------------------
  Cycle       Energy         DIIS error
 ---------------------------------------
    1    -572.3826047219      2.82e-03  
    2    -572.5382866196      6.37e-04  
    3    -572.5458155149      4.98e-04  
    4    -572.5484452887      8.11e-05  
    5    -572.5485889408      3.78e-05  
    6    -572.5486082536      1.35e-05  
    7    -572.5486108779      5.28e-06  
    8    -572.5486112997      1.09e-06  
    9    -572.5486113251      2.99e-07  
   10    -572.5486113275      1.95e-07  
   11    -572.5486113282      5.02e-08  
   12    -572.5486113283      1.81e-08  
   13    -572.5486113283      1.17e-08  
   14    -572.5486113283      4.06e-09  Convergence criterion met
 ---------------------------------------
 SCF time:   CPU 197.13s  wall 25.00s 
 SCF   energy =  -572.54861133
 Total energy =  -572.54861133
 Integrated density by DFT XC:
   Number of electrons = 96
   Numerical integral  =    95.996104171359
   Relative error      =     0.0040581548 %
 
 --------------------------------------------------------------
 
                    Orbital Energies (a.u.)
 --------------------------------------------------------------
 
 Alpha MOs
 -- Occupied --
-14.5209 -14.5203 -10.3481 -10.3481 -10.3203 -10.3203 -10.3190 -10.3190
-10.3188 -10.3188 -10.3178 -10.3178 -10.3167 -10.3167  -1.1530  -0.9812
 -0.9702  -0.8999  -0.8632  -0.8615  -0.8613  -0.7821  -0.7276  -0.7175
 -0.7164  -0.6710  -0.6467  -0.6008  -0.5894  -0.5669  -0.5628  -0.5447
 -0.5371  -0.5235  -0.5224  -0.5083  -0.4871  -0.4629  -0.4610  -0.4568
 -0.4544  -0.4358  -0.4321  -0.3530  -0.3494  -0.3381  -0.3380  -0.2943
 -- Virtual --
 -0.0113   0.0416   0.0443   0.0558   0.0618   0.0731   0.0754   0.0785
  0.0832   0.0913   0.0953   0.1016   0.1044   0.1133   0.1189   0.1242
  0.1297   0.1297   0.1458   0.1468   0.1599   0.1628   0.1731   0.1793
  0.1802   0.1858   0.1864   0.1938   0.1957   0.1980   0.2067   0.2074
  0.2153   0.2205   0.2255   0.2296   0.2381   0.2387   0.2409   0.2464
  0.2491   0.2526   0.2579   0.2638   0.2723   0.2747   0.2773   0.2780
  0.2873   0.2881   0.2913   0.2969   0.3013   0.3029   0.3088   0.3106
  0.3169   0.3206   0.3225   0.3280   0.3406   0.3528   0.3556   0.3575
  0.3674   0.3680   0.3723   0.3765   0.3897   0.3921   0.3975   0.4076
  0.4093   0.4218   0.4264   0.4350   0.4393   0.4451   0.4576   0.4635
  0.4677   0.4784   0.4891   0.5726   0.6388   0.6474   0.6923   0.6945
  0.6950   0.7116   0.7412   0.7618   0.7624   0.7795   0.7958   0.8036
  0.8087   0.8200   0.8237   0.8281   0.8332   0.8349   0.8523   0.8572
  0.8651   0.8827   0.8887   0.8931   0.9081   0.9395   0.9562   0.9604
  0.9828   0.9951   1.0170   1.0234   1.0305   1.0383   1.0481   1.0597
  1.0598   1.0794   1.0825   1.1035   1.1121   1.1149   1.1249   1.1493
  1.1604   1.1787   1.1850   1.1868   1.1949   1.2026   1.2114   1.2181
  1.2591   1.2655   1.2783   1.2922   1.2958   1.3101   1.3260   1.3318
  1.3662   1.3776   1.3918   1.4104   1.4723   1.4811   1.5057   1.5130
  1.5307   1.5430   1.5466   1.5617   1.5631   1.5757   1.5762   1.5834
  1.5921   1.6020   1.6562   1.7268   1.7383   1.8262   1.8862   1.9173
  1.9182   1.9405   1.9488   1.9762   2.0155   2.0382   2.0433   2.0624
  2.0638   2.0712   2.0941   2.1192   2.1891   2.1952   2.2013   2.2214
  2.2288   2.2331   2.2376   2.2404   2.2546   2.2548   2.3201   2.3317
  2.3473   2.3666   2.3856   2.3861   2.4141   2.4307   2.4972   2.5482
  2.6298   2.6488   2.6849   2.6966   2.7110   2.7119   2.7283   2.7474
  2.7609   2.8137   2.8223   2.8332   2.8334   2.8495   2.8770   2.8997
  2.9199   2.9789   3.0184   3.1774   3.1861   3.3231   3.4937   3.5152
  4.2227   4.3459   4.3462   4.3584   4.3618   4.4234   4.4438   4.4653
  4.4973   4.5225   4.5489   4.5968   4.8121   4.8253
 --------------------------------------------------------------
 
          Ground-State Mulliken Net Atomic Charges

     Atom                 Charge (a.u.)
  ----------------------------------------
      1 N                    -0.006126
      2 N                    -0.006130
      3 C                    -0.314066
      4 C                    -0.314056
      5 C                     0.226389
      6 C                     0.226328
      7 C                    -0.195213
      8 C                    -0.195200
      9 C                    -0.349842
     10 C                    -0.349805
     11 C                    -0.221654
     12 C                    -0.221650
     13 C                    -0.230993
     14 C                    -0.231005
     15 H                     0.225501
     16 H                     0.225501
     17 H                     0.226659
     18 H                     0.226659
     19 H                     0.213930
     20 H                     0.213929
     21 H                     0.213878
     22 H                     0.213878
     23 H                     0.211545
     24 H                     0.211544
  ----------------------------------------
  Sum of atomic charges =     0.000000

 -----------------------------------------------------------------
                    Cartesian Multipole Moments
 -----------------------------------------------------------------
    Charge (ESU x 10^10)
                -0.0000
    Dipole Moment (Debye)
         X       0.0001      Y       3.5168      Z      -0.0000
       Tot       3.5168
    Quadrupole Moments (Debye-Ang)
        XX     -73.9467     XY      -0.0003     YY     -87.3926
        XZ      -5.7881     YZ       0.0003     ZZ     -76.0198
    Octopole Moments (Debye-Ang^2)
       XXX       0.0023    XXY      25.8818    XYY       0.0002
       YYY      33.7845    XXZ      -0.0003    XYZ      12.7559
       YYZ      -0.0006    XZZ      -0.0015    YZZ       2.1470
       ZZZ      -0.0008
    Hexadecapole Moments (Debye-Ang^3)
      XXXX   -2468.1235   XXXY       0.0059   XXYY    -510.9310
      XYYY       0.0070   YYYY    -820.4702   XXXZ    -155.9771
      XXYZ       0.0022   XYYZ      -0.8230   YYYZ       0.0029
      XXZZ    -492.0574   XYZZ       0.0016   YYZZ    -182.9483
      XZZZ     -56.0309   YZZZ      -0.0004   ZZZZ    -445.6887
 -----------------------------------------------------------------
 Calculating analytic gradient of the SCF energy
 Gradient of SCF Energy
            1           2           3           4           5           6
    1   0.0000883  -0.0000893  -0.0001952   0.0001961  -0.0003380   0.0003369
    2   0.0006936   0.0006938  -0.0044088  -0.0044080   0.0003821   0.0003825
    3  -0.0085391   0.0085382   0.0054078  -0.0054087   0.0012506  -0.0012500
            7           8           9          10          11          12
    1   0.0000617  -0.0000619  -0.0004486   0.0004493   0.0010791  -0.0010789
    2  -0.0008654  -0.0008654   0.0021282   0.0021263   0.0011741   0.0011739
    3  -0.0022773   0.0022777   0.0012449  -0.0012447  -0.0015413   0.0015415
           13          14          15          16          17          18
    1   0.0008985  -0.0008983   0.0002869  -0.0002870   0.0000331  -0.0000333
    2   0.0006670   0.0006671   0.0005270   0.0005267   0.0004464   0.0004464
    3   0.0006065  -0.0006066  -0.0001453   0.0001454   0.0003439  -0.0003434
           19          20          21          22          23          24
    1   0.0001986  -0.0001981  -0.0000903   0.0000901  -0.0003919   0.0003923
    2  -0.0001454  -0.0001456  -0.0001802  -0.0001802  -0.0004181  -0.0004183
    3  -0.0001962   0.0001962   0.0004510  -0.0004509   0.0001595  -0.0001595
 Max gradient component =       8.539E-03
 RMS gradient           =       2.001E-03
 Gradient time:  CPU 52.68 s  wall 6.63 s

     Step 4	:
        Energy is -572.5486113283
                            Maximum         Tolerance       Converged?
         Gradient           9.62335519e-03	3.00000000e-04	false
         Displacement       1.67621625e-01	1.20000000e-03	false
         Energy change      7.34239548e-04	1.00000000e-06	false


	OPTIMIZATION CYCLE:	5

 Scaling Magnitude of Eigenvalues
 	Minimum: -25.00000000	 Maximum: 25.00000000
 66 Hessian Eigenvalues to form next step
   0.01201902   0.01374049   0.01992665   0.02141362   0.02160159
   0.02178662   0.02190324   0.02235754   0.02238872   0.02247986
   0.02253576   0.02259301   0.02271004   0.02271363   0.02272695
   0.02272844   0.02277199   0.02281847   0.02281981   0.02603556
   0.11105863   0.15594096   0.15998385   0.15999236   0.15999509
   0.15999666   0.15999828   0.15999962   0.16001320   0.16005410
   0.16045182   0.21911853   0.21998136   0.21999883   0.22009494
   0.23223389   0.23469213   0.24973248   0.25000000   0.25897810
   0.35523096   0.35644991   0.35660500   0.35709297   0.35711447
   0.35712151   0.35714232   0.35716788   0.35797426   0.35825383
   0.40164348   0.40819465   0.41114604   0.41363100   0.41639488
   0.41689678   0.44682037   0.44800810   0.45679183   0.45718479
   0.45902506   0.45952123   0.46038626   0.46096907   0.70845201
   1.06718134

 Minimum Search taking a RFO step
 Searching for Lambda that minimizes along all modes
	Value of Lambda   -0.00122348
	Norm  of Stepsize  0.14923329
	RMS   of Stepsize  0.01836935
Back transformation initial coordinates:
   1.1743
  -3.7950
   0.0022
  -1.1744
  -3.7950
  -0.0021
   2.6342
  -1.5261
   0.2654
  -2.6343
  -1.5261
  -0.2653
   2.2416
   0.2033
   2.2276
  -2.2417
   0.2032
  -2.2276
   4.6558
  -1.2042
  -1.4028
  -4.6557
  -1.2041
   1.4029
   3.8482
[...]
    1   0.0001381  -0.0001379   0.0000334  -0.0000330  -0.0000069   0.0000070
    2   0.0000897   0.0000892  -0.0000292  -0.0000291  -0.0000174  -0.0000171
    3   0.0000046  -0.0000047   0.0000360  -0.0000364   0.0000380  -0.0000377
           13          14          15          16          17          18
    1  -0.0000035   0.0000035  -0.0000136   0.0000127  -0.0000217   0.0000220
    2   0.0000494   0.0000491  -0.0000015  -0.0000011  -0.0000272  -0.0000270
    3  -0.0000108   0.0000109   0.0000015  -0.0000018   0.0000276  -0.0000276
           19          20          21          22          23          24
    1  -0.0000175   0.0000173   0.0000027  -0.0000027  -0.0000073   0.0000073
    2   0.0000087   0.0000086   0.0000002   0.0000001  -0.0000056  -0.0000057
    3   0.0000088  -0.0000089   0.0000249  -0.0000250   0.0000500  -0.0000500
 Max gradient component =       3.530E-04
 RMS gradient           =       9.664E-05
 Gradient time:  CPU 55.55 s  wall 7.01 s

     Step 6	:
        Energy is -572.5492874413
                            Maximum         Tolerance       Converged?
         Gradient           4.48557890e-04	3.00000000e-04	false
         Displacement       8.33593163e-03	1.20000000e-03	false
         Energy change      1.36426636e-05	1.00000000e-06	false


	OPTIMIZATION CYCLE:	7

 Scaling Magnitude of Eigenvalues
 	Minimum: -25.00000000	 Maximum: 25.00000000
 66 Hessian Eigenvalues to form next step
   0.01201912   0.01407614   0.01992665   0.02136895   0.02160159
   0.02179407   0.02190324   0.02235733   0.02238872   0.02253576
   0.02254967   0.02262840   0.02270582   0.02271013   0.02272163
   0.02272839   0.02277199   0.02277859   0.02281981   0.02765372
   0.10751535   0.15535014   0.15912572   0.15999238   0.15999509
   0.15999666   0.15999828   0.15999962   0.16000736   0.16005144
   0.16021553   0.21930592   0.21998136   0.21999882   0.22008622
   0.22625388   0.23469216   0.24973315   0.25000007   0.25539094
   0.35341668   0.35644985   0.35646778   0.35672781   0.35709297
   0.35712128   0.35712404   0.35714242   0.35752660   0.35825380
   0.35913251   0.40868480   0.41114616   0.41363104   0.41639488
   0.41690068   0.44743380   0.44800818   0.45679183   0.45690694
   0.45902506   0.46021473   0.46096907   0.46260193   0.68913186
   1.01239529

 Minimum Search taking a RFO step
 Searching for Lambda that minimizes along all modes
	Value of Lambda   -0.00000143
	Norm  of Stepsize  0.00365569
	RMS   of Stepsize  0.00044998
Back transformation initial coordinates:
   1.1714
  -3.7897
   0.0678
  -1.1714
  -3.7896
  -0.0677
   2.6264
  -1.5078
   0.2741
  -2.6264
  -1.5078
  -0.2741
   2.2118
   0.2764
   2.1743
  -2.2119
   0.2763
  -2.1744
   4.6893
  -1.2712
  -1.3488
  -4.6892
  -1.2710
   1.3489
   3.8298
   2.3379
   2.3861
  -3.8298
   2.3379
  -2.3862
   6.2620
   0.8282
  -1.1625
  -6.2619
   0.8285
   1.1626
   5.8374
   2.6370
   0.7056
  -5.8373
   2.6371
  -0.7056
   0.6408
   0.0490
   3.4732
  -0.6410
   0.0488
  -3.4735
   5.0313
  -2.7301
  -2.7516
  -5.0311
  -2.7298
   2.7519
   3.5094
   3.7248
   3.8648
  -3.5096
   3.7247
  -3.8651
   7.8412
   1.0358
  -2.4568
  -7.8409
   1.0361
   2.4570
   7.0816
   4.2604
   0.8707
  -7.0815
   4.2606
  -0.8708

	Performing Iterative Coordinate Back-Transformation

	  Starting from Previous Position

	  iter:	0	rms: 2.1923009508e-03	maxdev: 5.9169159605e-03
	  iter:	1	rms: 1.2795108396e-06	maxdev: 2.9831742460e-06
	  iter:	2	rms: 0.0000000000e+00	maxdev: 0.0000000000e+00	 Success!

	Finished Iterative Coordinate Back-Transformation
 ----------------------------------------------------------------
             Standard Nuclear Orientation (Angstroms)
    I     Atom           X                Y                Z
 ----------------------------------------------------------------
    1      N       0.6198703179    -2.0063509891     0.0357284941
    2      N      -0.6199106584    -2.0063484215    -0.0355631354
    3      C       1.3897817589    -0.7982304051     0.1445156553
    4      C      -1.3898038740    -0.7982250022    -0.1444346558
    5      C       1.1691515236     0.1463176093     1.1493039127
    6      C      -1.1690925495     0.1462786477    -1.1492442250
    7      C       2.4816277171    -0.6732728710    -0.7138429905
    8      C      -2.4816946139    -0.6732109557     0.7138588096
    9      C       2.0245267714     1.2379208164     1.2609537415
   10      C      -2.0244358309     1.2378978167    -1.2609840258
   11      C       3.3133571663     0.4381093611    -0.6153864185
   12      C      -3.3133939034     0.4381858916     0.6153110723
   13      C       3.0875350579     1.3957996426     0.3723568068
   14      C      -3.0874923219     1.3958344554    -0.3724547158
   15      H       0.3375685701     0.0259620551     1.8363428018
   16      H      -0.3374647744     0.0258776451    -1.8362222187
   17      H       2.6635622281    -1.4455302276    -1.4556805732
   18      H      -2.6636891488    -1.4454362197     1.4557154073
   19      H       1.8542020434     1.9722570316     2.0428872260
   20      H      -1.8540445964     1.9722044793    -2.0429307059
   21      H       4.1495039911     0.5478687591    -1.2997227050
   22      H      -4.1495738059     0.5479941370     1.2995991690
   23      H       3.7454165182     2.2553694156     0.4592472465
   24      H      -3.7453473109     2.2554175119    -0.4594138086
 ----------------------------------------------------------------
 Molecular Point Group                 C1    NOp =  1
 Largest Abelian Subgroup              C1    NOp =  1
 Nuclear Repulsion Energy =         793.73139390 hartrees
 There are       48 alpha and       48 beta electrons
 Applying Cartesian multipole field
    Component          Value
    ---------          -----
     (2,0,0)        1.00000E-11
     (0,2,0)        2.00000E-11
     (0,0,2)       -3.00000E-11
 Nucleus-field energy     = 1.9963039753e-08 hartrees
 Requested basis set is 6-31+G(d)
 There are 90 shells and 286 basis functions
 A cutoff of  1.0D-12 yielded   3523 shell pairs
 There are     37591 function pairs
 Smallest overlap matrix eigenvalue = 2.46E-06
 Guess MOs from SCF MO coefficient file

 -----------------------------------------------------------------------
  General SCF calculation program by
  Eric Jon Sundstrom, Paul Horn, Yuezhi Mao, Dmitri Zuev, Alec White,
  David Stuck, Shaama M.S., Shane Yost, Joonho Lee, David Small,
  Daniel Levine, Susi Lehtola, Hugh Burton, Evgeny Epifanovsky,
  Bang C. Huynh
 -----------------------------------------------------------------------
 Exchange:     0.2220 Hartree-Fock + 1.0000 wB97X-D + LR-HF
 Correlation:  1.0000 wB97X-D
 Using SG-2 standard quadrature grid
 Dispersion:   Grimme D
 A restricted SCF calculation will be
 performed using DIIS
 SCF converges when DIIS error is below 1.0e-08
 User-specified cutoff of 10e-12
 used for neglect of 2-electron integrals.
 A cutoff of 10e-12
 used for neglect of overlap integrals.
 Incremental Fock algorithm is on at the start.
 ---------------------------------------
  Cycle       Energy         DIIS error
 ---------------------------------------
    1    -572.5492789218      2.19e-05  
    2    -572.5492875744      4.49e-06  
    3    -572.5492881013      2.75e-06  
    4    -572.5492881934      9.71e-07  
    5    -572.5492882105      2.38e-07  
    6    -572.5492882113      1.21e-07  
    7    -572.5492882115      5.90e-08  
    8    -572.5492882116      1.61e-08  
    9    -572.5492882116      6.78e-09  Convergence criterion met
 ---------------------------------------
 SCF time:   CPU 132.21s  wall 16.00s 
 SCF   energy =  -572.54928821
 Total energy =  -572.54928821
 Integrated density by DFT XC:
   Number of electrons = 96
   Numerical integral  =    95.996327874656
   Relative error      =     0.0038251306 %
 
 --------------------------------------------------------------
 
                    Orbital Energies (a.u.)
 --------------------------------------------------------------
 
 Alpha MOs
 -- Occupied --
-14.5205 -14.5200 -10.3470 -10.3470 -10.3197 -10.3197 -10.3187 -10.3187
-10.3185 -10.3185 -10.3174 -10.3174 -10.3166 -10.3166  -1.1529  -0.9819
 -0.9712  -0.8996  -0.8638  -0.8620  -0.8615  -0.7814  -0.7274  -0.7173
 -0.7171  -0.6711  -0.6467  -0.6005  -0.5891  -0.5669  -0.5634  -0.5448
 -0.5367  -0.5237  -0.5225  -0.5081  -0.4876  -0.4629  -0.4616  -0.4570
 -0.4543  -0.4359  -0.4323  -0.3512  -0.3504  -0.3381  -0.3370  -0.2967
 -- Virtual --
 -0.0086   0.0410   0.0451   0.0563   0.0619   0.0730   0.0745   0.0788
  0.0833   0.0912   0.0947   0.1017   0.1047   0.1130   0.1179   0.1244
  0.1290   0.1315   0.1451   0.1472   0.1590   0.1639   0.1722   0.1788
  0.1791   0.1864   0.1868   0.1942   0.1961   0.1988   0.2059   0.2078
  0.2147   0.2197   0.2246   0.2286   0.2394   0.2395   0.2426   0.2452
  0.2488   0.2528   0.2585   0.2639   0.2732   0.2768   0.2785   0.2788
  0.2876   0.2882   0.2924   0.2972   0.3005   0.3017   0.3112   0.3141
  0.3174   0.3206   0.3212   0.3288   0.3413   0.3518   0.3534   0.3574
  0.3677   0.3681   0.3712   0.3782   0.3896   0.3936   0.4016   0.4054
  0.4084   0.4227   0.4251   0.4383   0.4430   0.4448   0.4598   0.4657
  0.4724   0.4792   0.4917   0.5733   0.6363   0.6475   0.6920   0.6961
  0.6989   0.7091   0.7443   0.7603   0.7626   0.7834   0.7932   0.8032
  0.8092   0.8202   0.8235   0.8289   0.8360   0.8367   0.8482   0.8569
  0.8667   0.8855   0.8885   0.8958   0.9113   0.9390   0.9557   0.9607
  0.9847   0.9928   1.0154   1.0242   1.0296   1.0392   1.0444   1.0580
  1.0600   1.0803   1.0826   1.0996   1.1148   1.1185   1.1241   1.1462
  1.1594   1.1777   1.1846   1.1880   1.1951   1.2030   1.2145   1.2184
  1.2614   1.2642   1.2748   1.2845   1.2989   1.3087   1.3243   1.3378
  1.3714   1.3777   1.3902   1.4128   1.4683   1.4773   1.5045   1.5218
  1.5336   1.5445   1.5508   1.5581   1.5652   1.5762   1.5823   1.5895
  1.5968   1.6023   1.6519   1.7181   1.7353   1.8238   1.8922   1.9178
  1.9186   1.9421   1.9528   1.9864   2.0073   2.0393   2.0439   2.0605
  2.0675   2.0712   2.0935   2.1183   2.1908   2.1988   2.2045   2.2261
  2.2317   2.2322   2.2415   2.2423   2.2569   2.2570   2.3214   2.3364
  2.3449   2.3667   2.3882   2.3887   2.4152   2.4375   2.4902   2.5557
  2.6330   2.6585   2.6836   2.6971   2.7129   2.7144   2.7325   2.7491
  2.7637   2.8176   2.8246   2.8306   2.8341   2.8498   2.8848   2.9042
  2.9256   2.9707   3.0233   3.1858   3.1910   3.3171   3.4951   3.5216
  4.2211   4.3469   4.3484   4.3568   4.3648   4.4226   4.4389   4.4651
  4.5010   4.5233   4.5494   4.6039   4.8066   4.8287
 --------------------------------------------------------------
 
          Ground-State Mulliken Net Atomic Charges

     Atom                 Charge (a.u.)
  ----------------------------------------
      1 N                     0.003960
      2 N                     0.003975
      3 C                    -0.399582
      4 C                    -0.399566
      5 C                     0.268435
      6 C                     0.268497
      7 C                    -0.127939
      8 C                    -0.127957
      9 C                    -0.375736
     10 C                    -0.375773
     11 C                    -0.238546
     12 C                    -0.238555
     13 C                    -0.224424
     14 C                    -0.224413
     15 H                     0.227210
     16 H                     0.227213
     17 H                     0.227491
     18 H                     0.227492
     19 H                     0.213462
     20 H                     0.213462
     21 H                     0.213985
     22 H                     0.213985
     23 H                     0.211663
     24 H                     0.211663
  ----------------------------------------
  Sum of atomic charges =     0.000000

 -----------------------------------------------------------------
                    Cartesian Multipole Moments
 -----------------------------------------------------------------
    Charge (ESU x 10^10)
                 0.0000
    Dipole Moment (Debye)
         X      -0.0000      Y       3.5050      Z      -0.0001
       Tot       3.5050
    Quadrupole Moments (Debye-Ang)
        XX     -73.6012     XY      -0.0001     YY     -87.0467
        XZ      -6.0023     YZ       0.0004     ZZ     -76.6847
    Octopole Moments (Debye-Ang^2)
       XXX      -0.0028    XXY      24.0979    XYY       0.0001
       YYY      33.7297    XXZ      -0.0008    XYZ      12.8975
       YYZ      -0.0021    XZZ       0.0002    YZZ       1.6828
       ZZZ      -0.0011
    Hexadecapole Moments (Debye-Ang^3)
      XXXX   -2468.5707   XXXY       0.0019   XXYY    -513.4745
      XYYY       0.0013   YYYY    -825.5900   XXXZ    -152.3221
      XXYZ       0.0021   XYYZ      -0.1768   YYYZ       0.0109
      XXZZ    -493.7046   XYZZ       0.0010   YYZZ    -180.9629
      XZZZ     -48.4671   YZZZ       0.0075   ZZZZ    -427.2893
 -----------------------------------------------------------------
 Calculating analytic gradient of the SCF energy
 Gradient of SCF Energy
            1           2           3           4           5           6
    1   0.0000867  -0.0000861  -0.0000394   0.0000375   0.0000026  -0.0000022
    2   0.0000543   0.0000540  -0.0000574  -0.0000572  -0.0000024  -0.0000044
    3   0.0000616  -0.0000631  -0.0000074   0.0000072   0.0000045  -0.0000035
            7           8           9          10          11          12
    1   0.0000283  -0.0000286  -0.0000062   0.0000057  -0.0000041   0.0000038
    2   0.0000446   0.0000454   0.0000021   0.0000017  -0.0000327  -0.0000329
    3   0.0000216  -0.0000215   0.0000016  -0.0000012   0.0000239  -0.0000244
           13          14          15          16          17          18
    1  -0.0000096   0.0000094  -0.0000144   0.0000162   0.0000147  -0.0000151
    2   0.0000017   0.0000022  -0.0000032  -0.0000042  -0.0000056  -0.0000057
    3   0.0000393  -0.0000394   0.0000057  -0.0000053   0.0000204  -0.0000202
           19          20          21          22          23          24
    1  -0.0000191   0.0000195   0.0000063  -0.0000062  -0.0000047   0.0000048
    2  -0.0000014  -0.0000014   0.0000021   0.0000024  -0.0000010  -0.0000009
    3   0.0000152  -0.0000151   0.0000282  -0.0000281   0.0000295  -0.0000295
 Max gradient component =       8.673E-05
 RMS gradient           =       2.842E-05
 Gradient time:  CPU 55.22 s  wall 6.96 s

     Step 7	:
        Energy is -572.5492882116
                            Maximum         Tolerance       Converged?
         Gradient           4.95524102e-05	3.00000000e-04	true
         Displacement       1.99237228e-03	1.20000000e-03	false
         Energy change      7.70312340e-07	1.00000000e-06	true

	 Optimization Converged in 7 cycles

 *****************************************************
             End of BFGS Algorithm
 *****************************************************
		----------------------------------
		   Verification of Optimization
		----------------------------------

 Eigenvalues of Hessian in Optimization Verification
   0.01202497   0.01353564   0.01992672   0.02149195   0.02160167
   0.02186617   0.02190376   0.02233947   0.02238872   0.02253563
   0.02254764   0.02260351   0.02268831   0.02271009   0.02272839
   0.02277188   0.02277202   0.02281980   0.02305006   0.02760511
   0.10941360   0.15502721   0.15918103   0.15999293   0.15999520
   0.15999668   0.15999828   0.15999962   0.16001117   0.16008697
   0.16055457   0.21703941   0.21956324   0.21998168   0.21999930
   0.22077082   0.23469463   0.24974703   0.25000268   0.26203080
   0.32037882   0.35541941   0.35645001   0.35672960   0.35709297
   0.35712141   0.35712579   0.35714239   0.35721989   0.35813080
   0.35825823   0.40866116   0.41115617   0.41363416   0.41639488
   0.41676303   0.44681713   0.44801254   0.45679184   0.45693648
   0.45902508   0.46046503   0.46096907   0.46420172   0.71688828
   1.00734746

 Found a minimum
		---------------------------------
		       End of Verification
		---------------------------------

 Final energy is -572.549288211584

	******************************
	**  OPTIMIZATION CONVERGED  **
	******************************
 ----------------------------------------------------------------
             Standard Nuclear Orientation (Angstroms)
    I     Atom           X                Y                Z
 ----------------------------------------------------------------
    1      N       0.6198703179    -2.0063509891     0.0357284941
    2      N      -0.6199106584    -2.0063484215    -0.0355631354
    3      C       1.3897817589    -0.7982304051     0.1445156553
    4      C      -1.3898038740    -0.7982250022    -0.1444346558
    5      C       1.1691515236     0.1463176093     1.1493039127
    6      C      -1.1690925495     0.1462786477    -1.1492442250
    7      C       2.4816277171    -0.6732728710    -0.7138429905
    8      C      -2.4816946139    -0.6732109557     0.7138588096
    9      C       2.0245267714     1.2379208164     1.2609537415
   10      C      -2.0244358309     1.2378978167    -1.2609840258
   11      C       3.3133571663     0.4381093611    -0.6153864185
   12      C      -3.3133939034     0.4381858916     0.6153110723
   13      C       3.0875350579     1.3957996426     0.3723568068
   14      C      -3.0874923219     1.3958344554    -0.3724547158
   15      H       0.3375685701     0.0259620551     1.8363428018
   16      H      -0.3374647744     0.0258776451    -1.8362222187
   17      H       2.6635622281    -1.4455302276    -1.4556805732
   18      H      -2.6636891488    -1.4454362197     1.4557154073
   19      H       1.8542020434     1.9722570316     2.0428872260
   20      H      -1.8540445964     1.9722044793    -2.0429307059
   21      H       4.1495039911     0.5478687591    -1.2997227050
   22      H      -4.1495738059     0.5479941370     1.2995991690
   23      H       3.7454165182     2.2553694156     0.4592472465
   24      H      -3.7453473109     2.2554175119    -0.4594138086
 ----------------------------------------------------------------
 Molecular Point Group                 C1    NOp =  1
 Largest Abelian Subgroup              C1    NOp =  1
 Nuclear Repulsion Energy =         793.73139390 hartrees
 There are       48 alpha and       48 beta electrons

Z-matrix Print:
$molecule
0 1
N 
N  1 1.241829
C  2 1.436715 1 122.638632
C  3 1.394461 2 116.637362 1 -132.094632 0
H  4 1.086188 3 119.198895 2 3.847535 0
C  4 1.391632 3 119.734231 2 -176.616450 0
H  6 1.086050 4 119.753634 3 -178.502685 0
C  6 1.394204 4 120.125519 3 2.568105 0
H  8 1.085918 6 120.151654 4 179.058308 0
C  8 1.394460 6 119.812230 4 -0.075110 0
H  10 1.086131 8 120.116325 6 178.961987 0
C  10 1.391305 8 120.421749 6 -1.467895 0
H  12 1.085375 10 120.481005 8 -179.593817 0
C  1 1.436716 2 122.639003 3 6.107438 0
C  14 1.394461 1 116.636769 2 -132.091237 0
H  15 1.086188 14 119.198814 1 3.848056 0
C  15 1.391631 14 119.734332 1 -176.616089 0
H  17 1.086050 15 119.753614 14 -178.502994 0
C  17 1.394203 15 120.125505 14 2.568345 0
H  19 1.085918 17 120.151643 15 179.058050 0
C  19 1.394459 17 119.812245 15 -0.075214 0
H  21 1.086131 19 120.116329 17 178.961573 0
C  21 1.391305 19 120.421740 17 -1.467919 0
H  23 1.085375 21 120.480668 19 -179.594377 0
$end

 -----------------------------------------------------------------------
                  END OF GEOMETRY OPTIMIZER USING LIBOPT3               
 -----------------------------------------------------------------------
 Total job time:  250.93s(wall), 1948.61s(cpu) 
 Wed Dec  3 00:52:52 2025

        *************************************************************
        *                                                           *
        *  Thank you very much for using Q-Chem.  Have a nice day.  *
        *                                                           *
        *************************************************************


